============================== echo of input deck ==============================
TITLE "mep test"

echo
start meptest2

GEOMETRY   noautosym
 C                    -0.63041882    -0.10565750     0.00000000
 N                     0.56689462    -0.05377250     0.00000000
 H                    -0.23798723     1.04344672     0.00000000
end

basis
* library DZVP_(DFT_Orbital)
end

task dft freq

freq
reuse meptest2.hess
end

mepgs
maxmep 30
maxiter 20
inhess 2
xyz
evib 0.0005
stride 0.1
print low
backward
end

task dft mepgs
================================================================================

         Total DFT energy =      -92.553385177665

                       DFT Final Molecular Orbital Analysis
                       ------------------------------------

 Vector    1  Occ=2.000000D+00  E=-1.394686D+01

 Vector    2  Occ=2.000000D+00  E=-9.873695D+00

 Vector    3  Occ=2.000000D+00  E=-9.118471D-01

 Vector    4  Occ=2.000000D+00  E=-4.828988D-01

 Vector    5  Occ=2.000000D+00  E=-4.103869D-01

 Vector    6  Occ=2.000000D+00  E=-3.574308D-01

 Vector    7  Occ=2.000000D+00  E=-2.980251D-01

 Vector    8  Occ=0.000000D+00  E=-1.066242D-01

 Vector    9  Occ=0.000000D+00  E=-4.908140D-02

 Vector   10  Occ=0.000000D+00  E= 1.537811D-02

 Vector   11  Occ=0.000000D+00  E= 1.717889D-01

 Vector   12  Occ=0.000000D+00  E= 2.353093D-01

 Vector   13  Occ=0.000000D+00  E= 2.539919D-01

 Vector   14  Occ=0.000000D+00  E= 3.426972D-01

 Vector   15  Occ=0.000000D+00  E= 4.400330D-01

 Vector   16  Occ=0.000000D+00  E= 4.750489D-01

 Vector   17  Occ=0.000000D+00  E= 5.032089D-01

     Multipole analysis of the density
     ---------------------------------

     L   x y z        total         alpha         beta         nuclear
     -   - - -        -----         -----         ----         -------
     0   0 0 0      0.000000     -7.000000     -7.000000     14.000000

     1   1 0 0     -0.044433     -0.022217     -0.022217      0.000000
     1   0 1 0      0.532374      0.266187      0.266187      0.000000
     1   0 0 1      0.000000      0.000000      0.000000      0.000000

     2   2 0 0    -10.820467    -13.785445    -13.785445     16.750423
     2   1 1 0     -0.278665     -0.028744     -0.028744     -0.221178
     2   1 0 1      0.000000      0.000000      0.000000      0.000000
     2   0 2 0     -7.186288     -5.692795     -5.692795      4.199301
     2   0 1 1      0.000000      0.000000      0.000000      0.000000

 Zero-Point correction to Energy  =    6.542 kcal/mol  (  0.010425 au)
 Thermal correction to Energy     =    8.319 kcal/mol  (  0.013256 au)
 Thermal correction to Enthalpy   =    8.911 kcal/mol  (  0.014200 au)
 Total Entropy                    =   52.162 cal/mol-K
   - Translational                =   35.800 cal/mol-K (mol. weight =  27.0109)
   - Rotational                   =   16.361 cal/mol-K (symmetry #  =        1)
   - Vibrational                  =    0.001 cal/mol-K
   - Translational                  =    2.979 cal/mol-K
   - Rotational                     =    2.979 cal/mol-K
   - Vibrational                    =    0.012 cal/mol-K
 P.Frequency    -1065.98        0.00        0.00        0.00        0.00        0.00
 P.Frequency        0.00     2018.77     2559.29
         Total DFT energy =      -92.553385179926

 Normal Eigenvalue ||           Projected Infra Red Intensities
  Mode   [cm**-1]  || [atomic units] [(debye/angs)**2] [(KM/mol)] [arbitrary]
 ------ ---------- || -------------- ----------------- ---------- -----------
    1       -0.043 ||    0.114757           2.648       111.871      17.743
    2        0.000 ||    0.027108           0.625        26.427       4.191
    3        0.000 ||    0.038272           0.883        37.310       5.918
    4        0.000 ||    0.021979           0.507        21.426       3.398
    5        0.000 ||    0.010302           0.238        10.043       1.593
    6        0.000 ||    0.062375           1.439        60.806       9.644
    7        0.000 ||    0.004847           0.112         4.725       0.749
    8        0.154 ||    0.136540           3.150       133.106      21.111
    9        0.248 ||    0.165903           3.828       161.730      25.651
 ----------------------------------------------------------------------------

         Total DFT energy =      -92.553895007345
         Total DFT energy =      -92.555420192640
@ Step       Energy      Delta E   Gmax     Grms     Xrms     Xmax   Walltime
@ ---- ---------------- -------- -------- -------- -------- -------- --------
@    0     -92.55542019  0.0D+00  0.01369  0.00706  0.00000  0.00000     15.3
         Total DFT energy =      -92.555555414708
@    1     -92.55555541 -1.4D-04  0.00064  0.00029  0.00507  0.01058     17.3
         Total DFT energy =      -92.555555811456
@    2     -92.55555581 -4.0D-07  0.00007  0.00003  0.00033  0.00074     18.9
@    2     -92.55555581 -4.0D-07  0.00007  0.00003  0.00033  0.00074     18.9
         Total DFT energy =      -92.558242432752
@ Step       Energy      Delta E   Gmax     Grms     Xrms     Xmax   Walltime
@ ---- ---------------- -------- -------- -------- -------- -------- --------
@    0     -92.55824243  0.0D+00  0.01340  0.00618  0.00000  0.00000     21.1
         Total DFT energy =      -92.558307679619
@    1     -92.55830768 -6.5D-05  0.00043  0.00024  0.00237  0.00500     23.1
         Total DFT energy =      -92.558307852068
@    2     -92.55830785 -1.7D-07  0.00006  0.00003  0.00020  0.00042     24.7
@    2     -92.55830785 -1.7D-07  0.00006  0.00003  0.00020  0.00042     24.7
         Total DFT energy =      -92.561990440888
@ Step       Energy      Delta E   Gmax     Grms     Xrms     Xmax   Walltime
@ ---- ---------------- -------- -------- -------- -------- -------- --------
@    0     -92.56199044  0.0D+00  0.00365  0.00171  0.00000  0.00000     26.7
         Total DFT energy =      -92.561995040473
@    1     -92.56199504 -4.6D-06  0.00016  0.00010  0.00062  0.00130     28.6
@    1     -92.56199504 -4.6D-06  0.00016  0.00010  0.00062  0.00130     28.6
         Total DFT energy =      -92.566410100230
@ Step       Energy      Delta E   Gmax     Grms     Xrms     Xmax   Walltime
@ ---- ---------------- -------- -------- -------- -------- -------- --------
@    0     -92.56641010  0.0D+00  0.00549  0.00262  0.00000  0.00000     30.6
         Total DFT energy =      -92.566419885001
@    1     -92.56641989 -9.8D-06  0.00058  0.00034  0.00095  0.00191     32.6
         Total DFT energy =      -92.566420134327
@    2     -92.56642013 -2.5D-07  0.00007  0.00003  0.00019  0.00038     34.2
@    2     -92.56642013 -2.5D-07  0.00007  0.00003  0.00019  0.00038     34.2
         Total DFT energy =      -92.571390702740
@ Step       Energy      Delta E   Gmax     Grms     Xrms     Xmax   Walltime
@ ---- ---------------- -------- -------- -------- -------- -------- --------
@    0     -92.57139070  0.0D+00  0.00199  0.00095  0.00000  0.00000     36.2
         Total DFT energy =      -92.571391936297
@    1     -92.57139194 -1.2D-06  0.00025  0.00015  0.00033  0.00068     38.0
@    1     -92.57139194 -1.2D-06  0.00025  0.00015  0.00033  0.00068     38.0
         Total DFT energy =      -92.576725282837
@ Step       Energy      Delta E   Gmax     Grms     Xrms     Xmax   Walltime
@ ---- ---------------- -------- -------- -------- -------- -------- --------
@    0     -92.57672528  0.0D+00  0.00416  0.00201  0.00000  0.00000     40.3
         Total DFT energy =      -92.576730540798
@    1     -92.57673054 -5.3D-06  0.00065  0.00037  0.00069  0.00140     42.1
         Total DFT energy =      -92.576730782718
@    2     -92.57673078 -2.4D-07  0.00009  0.00004  0.00018  0.00036     43.7
@    2     -92.57673078 -2.4D-07  0.00009  0.00004  0.00018  0.00036     43.7
         Total DFT energy =      -92.582277127148
@ Step       Energy      Delta E   Gmax     Grms     Xrms     Xmax   Walltime
@ ---- ---------------- -------- -------- -------- -------- -------- --------
@    0     -92.58227713  0.0D+00  0.00279  0.00135  0.00000  0.00000     45.9
         Total DFT energy =      -92.582279694667
@    1     -92.58227969 -2.6D-06  0.00036  0.00020  0.00046  0.00094     47.7
@    1     -92.58227969 -2.6D-06  0.00036  0.00020  0.00046  0.00094     47.7
         Total DFT energy =      -92.587893870202
@ Step       Energy      Delta E   Gmax     Grms     Xrms     Xmax   Walltime
@ ---- ---------------- -------- -------- -------- -------- -------- --------
@    0     -92.58789387  0.0D+00  0.00419  0.00203  0.00000  0.00000     49.9
         Total DFT energy =      -92.587897022817
@    1     -92.58789702 -3.2D-06  0.00284  0.00137  0.00021  0.00043     51.5
         Total DFT energy =      -92.587899688744
@    2     -92.58789969 -2.7D-06  0.00002  0.00001  0.00044  0.00090     53.3
@    2     -92.58789969 -2.7D-06  0.00002  0.00001  0.00044  0.00090     53.3
         Total DFT energy =      -92.593466906267
@ Step       Energy      Delta E   Gmax     Grms     Xrms     Xmax   Walltime
@ ---- ---------------- -------- -------- -------- -------- -------- --------
@    0     -92.59346691  0.0D+00  0.00299  0.00149  0.00000  0.00000     55.5
         Total DFT energy =      -92.593467623085
@    1     -92.59346762 -7.2D-07  0.00297  0.00148  0.00029  0.00063     57.1
         Total DFT energy =      -92.593468263008
@    2     -92.59346826 -6.4D-07  0.00263  0.00131  0.00005  0.00011     58.4
         Total DFT energy =      -92.593470546672
@    3     -92.59347055 -2.3D-06  0.00006  0.00004  0.00040  0.00082     60.2
@    3     -92.59347055 -2.3D-06  0.00006  0.00004  0.00040  0.00082     60.2
         Total DFT energy =      -92.598878946986
@ Step       Energy      Delta E   Gmax     Grms     Xrms     Xmax   Walltime
@ ---- ---------------- -------- -------- -------- -------- -------- --------
@    0     -92.59887895  0.0D+00  0.00371  0.00184  0.00000  0.00000     62.2
         Total DFT energy =      -92.593337184411
@    1     -92.59333718  5.5D-03  0.04216  0.02242  0.02320  0.04062     64.4
         Total DFT energy =      -92.598884270777
@    2     -92.59888427 -5.5D-03  0.00057  0.00032  0.02279  0.04037     66.5
         Total DFT energy =      -92.598884526631
@    3     -92.59888453 -2.6D-07  0.00009  0.00004  0.00021  0.00037     68.1
@    3     -92.59888453 -2.6D-07  0.00009  0.00004  0.00021  0.00037     68.1
         Total DFT energy =      -92.604039998185
@ Step       Energy      Delta E   Gmax     Grms     Xrms     Xmax   Walltime
@ ---- ---------------- -------- -------- -------- -------- -------- --------
@    0     -92.60404000  0.0D+00  0.00338  0.00171  0.00000  0.00000     70.4
         Total DFT energy =      -92.604042079932
@    1     -92.60404208 -2.1D-06  0.00305  0.00154  0.00038  0.00083     72.2
         Total DFT energy =      -92.604045113949
@    2     -92.60404511 -3.0D-06  0.00093  0.00049  0.00037  0.00072     74.0
         Total DFT energy =      -92.604045424850
@ Step       Energy      Delta E   Gmax     Grms     Xrms     Xmax   Walltime
@ ---- ---------------- -------- -------- -------- -------- -------- --------
@    0     -92.61325994  0.0D+00  0.00364  0.00187  0.00000  0.00000     84.8
         Total DFT energy =      -92.613264597817
@    1     -92.61326460 -4.7D-06  0.00262  0.00135  0.00052  0.00110     86.6
         Total DFT energy =      -92.613266846745
@    2     -92.61326685 -2.2D-06  0.00120  0.00070  0.00065  0.00128     88.4
         Total DFT energy =      -92.613267483675
@    3     -92.61326748 -6.4D-07  0.00003  0.00002  0.00021  0.00035     90.2
@    3     -92.61326748 -6.4D-07  0.00003  0.00002  0.00021  0.00035     90.2
         Total DFT energy =      -92.617168241238
@ Step       Energy      Delta E   Gmax     Grms     Xrms     Xmax   Walltime
@ ---- ---------------- -------- -------- -------- -------- -------- --------
@    0     -92.61716824  0.0D+00  0.00356  0.00186  0.00000  0.00000     92.2
         Total DFT energy =      -92.617173790756
@    1     -92.61717379 -5.5D-06  0.00243  0.00127  0.00060  0.00126     94.0
         Total DFT energy =      -92.617175619824
@    2     -92.61717562 -1.8D-06  0.00139  0.00083  0.00069  0.00133     95.9
         Total DFT energy =      -92.617176539504
@    3     -92.61717654 -9.2D-07  0.00006  0.00003  0.00026  0.00046     97.7
@    3     -92.61717654 -9.2D-07  0.00006  0.00003  0.00026  0.00046     97.7
         Total DFT energy =      -92.620517652412
@ Step       Energy      Delta E   Gmax     Grms     Xrms     Xmax   Walltime
@ ---- ---------------- -------- -------- -------- -------- -------- --------
@    0     -92.62051765  0.0D+00  0.00356  0.00188  0.00000  0.00000     99.7
         Total DFT energy =      -92.620524237725
@    1     -92.62052424 -6.6D-06  0.00228  0.00121  0.00068  0.00139    101.5
         Total DFT energy =      -92.620525889538
@    2     -92.62052589 -1.7D-06  0.00151  0.00090  0.00072  0.00136    103.3
         Total DFT energy =      -92.620527024217
@    3     -92.62052702 -1.1D-06  0.00012  0.00006  0.00031  0.00060    105.1
@    3     -92.62052702 -1.1D-06  0.00012  0.00006  0.00031  0.00060    105.1
         Total DFT energy =      -92.623248744428
@ Step       Energy      Delta E   Gmax     Grms     Xrms     Xmax   Walltime
@ ---- ---------------- -------- -------- -------- -------- -------- --------
@    0     -92.62324874  0.0D+00  0.00330  0.00179  0.00000  0.00000    107.1
         Total DFT energy =      -92.623256019778
@    1     -92.62325602 -7.3D-06  0.00217  0.00119  0.00081  0.00168    108.9
         Total DFT energy =      -92.623256989825
@    2     -92.62325699 -9.7D-07  0.00191  0.00115  0.00085  0.00156    110.7
         Total DFT energy =      -92.623258879356
@    3     -92.62325888 -1.9D-06  0.00008  0.00004  0.00038  0.00068    112.5
@    3     -92.62325888 -1.9D-06  0.00008  0.00004  0.00038  0.00068    112.5
         Total DFT energy =      -92.625307820600
@ Step       Energy      Delta E   Gmax     Grms     Xrms     Xmax   Walltime
@ ---- ---------------- -------- -------- -------- -------- -------- --------
@    0     -92.62530782  0.0D+00  0.00332  0.00183  0.00000  0.00000    114.5
         Total DFT energy =      -92.625316242813
@    1     -92.62531624 -8.4D-06  0.00187  0.00104  0.00083  0.00163    116.3
         Total DFT energy =      -92.625318457496
@    2     -92.62531846 -2.2D-06  0.00121  0.00067  0.00075  0.00132    118.1
         Total DFT energy =      -92.625319015778
@    3     -92.62531902 -5.6D-07  0.00043  0.00022  0.00041  0.00076    120.0
@    3     -92.62531902 -5.6D-07  0.00043  0.00022  0.00041  0.00076    120.0
         Total DFT energy =      -92.626650590277
@ Step       Energy      Delta E   Gmax     Grms     Xrms     Xmax   Walltime
@ ---- ---------------- -------- -------- -------- -------- -------- --------
@    0     -92.62665059  0.0D+00  0.00309  0.00164  0.00000  0.00000    122.0
         Total DFT energy =      -92.626644277634
@    1     -92.62664428  6.3D-06  0.00614  0.00353  0.00283  0.00521    123.8
         Total DFT energy =      -92.626663413305
@    2     -92.62666341 -1.9D-05  0.00091  0.00053  0.00135  0.00242    125.6
         Total DFT energy =      -92.626664134838
@    3     -92.62666413 -7.2D-07  0.00025  0.00015  0.00027  0.00046    127.0
@    3     -92.62666413 -7.2D-07  0.00025  0.00015  0.00027  0.00046    127.0
         Total DFT energy =      -92.627261035100
@ Step       Energy      Delta E   Gmax     Grms     Xrms     Xmax   Walltime
@ ---- ---------------- -------- -------- -------- -------- -------- --------
@    0     -92.62726104  0.0D+00  0.00187  0.00106  0.00000  0.00000    129.1
         Total DFT energy =      -92.627263010813
@    1     -92.62726301 -2.0D-06  0.00111  0.00061  0.00053  0.00093    130.9
         Total DFT energy =      -92.627264160491
@    2     -92.62726416 -1.1D-06  0.00056  0.00031  0.00128  0.00246    132.6
         Total DFT energy =      -92.627264808679
@    3     -92.62726481 -6.5D-07  0.00000  0.00000  0.00050  0.00094    134.4
@    3     -92.62726481 -6.5D-07  0.00000  0.00000  0.00050  0.00094    134.4
         Total DFT energy =      -92.627090305848
         Total DFT energy =      -92.627278607378
@ Step       Energy      Delta E   Gmax     Grms     Xrms     Xmax   Walltime
@ ---- ---------------- -------- -------- -------- -------- -------- --------
@    0     -92.62727861  0.0D+00  0.00109  0.00059  0.00000  0.00000    138.4
         Total DFT energy =      -92.627279522914
@    1     -92.62727952 -9.2D-07  0.00054  0.00032  0.00035  0.00066    140.2
         Total DFT energy =      -92.627278160779
@    2     -92.62727816  1.4D-06  0.00088  0.00055  0.00146  0.00265    142.1
         Total DFT energy =      -92.627280136451
@    3     -92.62728014 -2.0D-06  0.00000  0.00000  0.00095  0.00168    143.9
@    3     -92.62728014 -2.0D-06  0.00000  0.00000  0.00095  0.00168    143.9
         Total DFT energy =      -92.627296098851
@ Step       Energy      Delta E   Gmax     Grms     Xrms     Xmax   Walltime
@ ---- ---------------- -------- -------- -------- -------- -------- --------
@    0     -92.62729610  0.0D+00  0.00038  0.00021  0.00000  0.00000    145.7
@ Step       Energy      Delta E   Gmax     Grms     Xrms     Xmax   Walltime
@ ---- ---------------- -------- -------- -------- -------- -------- --------
@    0     -92.62729610  0.0D+00  0.00038  0.00021  0.00000  0.00000    145.7
         Total DFT energy =      -92.626805503955
         Total DFT energy =      -92.627179623863
         Total DFT energy =      -92.627269370392
         Total DFT energy =      -92.627290528097
         Total DFT energy =      -92.627294322252

 Output coordinates in angstroms (scale by  1.889725989 to convert to a.u.)

  No.       Tag          Charge          X              Y              Z
 ---- ---------------- ---------- -------------- -------------- --------------
    1 C                    6.0000    -0.13729341     0.31433915     0.00000000
    2 N                    7.0000     0.61510012    -0.57547376     0.00000000
    3 H                    1.0000    -0.83599394     1.14671318     0.00000000

 Total times  cpu:      145.6s     wall:      155.3s
