============================== echo of input deck ==============================
echo
title "M06-HF/6-31+G* CH3 force "

start ch3

geometry
     C     0.000000    0.000000    0.000000
     H     0.000000    1.078410    0.000000
     H     0.933930   -0.539205    0.000000
     H    -0.933930   -0.539205    0.000000
end

basis
* library 6-31+G*
end

dft
xc  m06-hf
mult 2
grid fine
end

task dft  gradient
================================================================================

 Output coordinates in angstroms (scale by  1.889725989 to convert to a.u.)

  No.       Tag          Charge          X              Y              Z
 ---- ---------------- ---------- -------------- -------------- --------------
    1 C                    6.0000     0.00000000     0.00000000     0.00000000
    2 H                    1.0000     0.76255084     0.76255084     0.00000000
    3 H                    1.0000     0.27911298    -1.04166382     0.00000000
    4 H                    1.0000    -1.04166382     0.27911298     0.00000000

         Total DFT energy =      -39.814417853092

                    DFT Final Alpha Molecular Orbital Analysis
                    ------------------------------------------

 Vector    1  Occ=1.000000D+00  E=-1.097990D+01  Symmetry=a1'

 Vector    2  Occ=1.000000D+00  E=-8.820745D-01  Symmetry=a1'

 Vector    3  Occ=1.000000D+00  E=-5.879649D-01  Symmetry=e'

 Vector    4  Occ=1.000000D+00  E=-5.879649D-01  Symmetry=e'

 Vector    5  Occ=1.000000D+00  E=-3.418273D-01  Symmetry=a2"

 Vector    6  Occ=0.000000D+00  E= 6.265748D-02  Symmetry=a1'

 Vector    7  Occ=0.000000D+00  E= 7.905093D-02  Symmetry=e'

 Vector    8  Occ=0.000000D+00  E= 7.905093D-02  Symmetry=e'

 Vector    9  Occ=0.000000D+00  E= 1.106264D-01  Symmetry=a2"

 Vector   10  Occ=0.000000D+00  E= 2.940742D-01  Symmetry=e'

 Vector   11  Occ=0.000000D+00  E= 2.940742D-01  Symmetry=e'

 Vector   12  Occ=0.000000D+00  E= 3.016256D-01  Symmetry=a1'

 Vector   13  Occ=0.000000D+00  E= 7.221788D-01  Symmetry=e'

 Vector   14  Occ=0.000000D+00  E= 7.221788D-01  Symmetry=e'

 Vector   15  Occ=0.000000D+00  E= 7.422168D-01  Symmetry=a2"

 Vector    1  Occ=1.000000D+00  E=-1.097993D+01  Symmetry=a1'

 Vector    2  Occ=1.000000D+00  E=-8.482908D-01  Symmetry=a1'

 Vector    3  Occ=1.000000D+00  E=-5.733620D-01  Symmetry=e'

 Vector    4  Occ=1.000000D+00  E=-5.733620D-01  Symmetry=e'

 Vector    5  Occ=0.000000D+00  E=-9.216875D-02  Symmetry=a2"

 Vector    6  Occ=0.000000D+00  E=-2.207809D-02  Symmetry=a1'

 Vector    7  Occ=0.000000D+00  E= 2.788165D-02  Symmetry=e'

 Vector    8  Occ=0.000000D+00  E= 2.788165D-02  Symmetry=e'

 Vector    9  Occ=0.000000D+00  E= 1.006353D-01  Symmetry=a2"

 Vector   10  Occ=0.000000D+00  E= 2.773642D-01  Symmetry=a1'

 Vector   11  Occ=0.000000D+00  E= 2.957169D-01  Symmetry=e'

 Vector   12  Occ=0.000000D+00  E= 2.957169D-01  Symmetry=e'

 Vector   13  Occ=0.000000D+00  E= 7.274074D-01  Symmetry=e'

 Vector   14  Occ=0.000000D+00  E= 7.274074D-01  Symmetry=e'

 Vector   15  Occ=0.000000D+00  E= 7.579765D-01  Symmetry=a2"

     Multipole analysis of the density
     ---------------------------------

     L   x y z        total         alpha         beta         nuclear
     -   - - -        -----         -----         ----         -------
     0   0 0 0      0.000000     -5.000000     -4.000000      9.000000

     1   1 0 0      0.000000      0.000000      0.000000      0.000000
     1   0 1 0      0.000000      0.000000      0.000000      0.000000
     1   0 0 1      0.000000      0.000000      0.000000      0.000000

     2   2 0 0     -5.474924     -6.186668     -5.517804      6.229548
     2   1 1 0      0.000000      0.000000      0.000000      0.000000
     2   1 0 1      0.000000      0.000000      0.000000      0.000000
     2   0 2 0     -5.474924     -6.186668     -5.517804      6.229548
     2   0 1 1      0.000000      0.000000      0.000000      0.000000

 Total times  cpu:        2.3s     wall:        4.2s
