============================== echo of input deck ==============================
echo
title "M06-2X/6-31+G*  NH2 + CH3 TS single point"

start cnh5

geometry
C       -1.199577    -.011126    -.000030
N        1.400715     .129862     .000015
H       -1.426660    -.512932     .933057
H       -1.419907    -.591382    -.888143
H       -1.520237    1.022806    -.045783
H         .188926     .126896     .001001
H        1.570338    -.887667    -.000053
end

basis
* library 6-31+G*
end

dft
xc  m06-2x
mult 3
grid fine
end

task dft
================================================================================

 Output coordinates in angstroms (scale by  1.889725989 to convert to a.u.)

  No.       Tag          Charge          X              Y              Z
 ---- ---------------- ---------- -------------- -------------- --------------
    1 C                    6.0000    -0.01894486    -1.19947916    -0.00002200
    2 N                    7.0000    -0.09471245     1.40352975     0.00000423
    3 H                    1.0000     0.47700421    -1.43906203     0.93307063
    4 H                    1.0000     0.55561339    -1.43429021    -0.88812877
    5 H                    1.0000    -1.06058897    -1.49412331    -0.04578127
    6 H                    1.0000    -0.12212079     0.19204712     0.00099846
    7 H                    1.0000     0.92674845     1.54759517    -0.00005661

         Total DFT energy =      -95.642057785728

                    DFT Final Alpha Molecular Orbital Analysis
                    ------------------------------------------

 Vector    1  Occ=1.000000D+00  E=-1.480961D+01

 Vector    2  Occ=1.000000D+00  E=-1.055787D+01

 Vector    3  Occ=1.000000D+00  E=-9.614258D-01

 Vector    4  Occ=1.000000D+00  E=-7.950374D-01

 Vector    5  Occ=1.000000D+00  E=-5.445064D-01

 Vector    6  Occ=1.000000D+00  E=-4.904519D-01

 Vector    7  Occ=1.000000D+00  E=-4.892518D-01

 Vector    8  Occ=1.000000D+00  E=-4.416793D-01

 Vector    9  Occ=1.000000D+00  E=-3.931839D-01

 Vector   10  Occ=1.000000D+00  E=-2.941876D-01

 Vector   11  Occ=0.000000D+00  E= 3.270666D-02

 Vector   12  Occ=0.000000D+00  E= 6.302488D-02

 Vector   13  Occ=0.000000D+00  E= 6.748619D-02

 Vector   14  Occ=0.000000D+00  E= 7.173178D-02

 Vector   15  Occ=0.000000D+00  E= 1.163532D-01

 Vector   16  Occ=0.000000D+00  E= 1.482847D-01

 Vector   17  Occ=0.000000D+00  E= 1.553355D-01

 Vector   18  Occ=0.000000D+00  E= 2.005508D-01

 Vector   19  Occ=0.000000D+00  E= 2.273311D-01

 Vector   20  Occ=0.000000D+00  E= 2.286276D-01

 Vector   21  Occ=0.000000D+00  E= 2.786730D-01

 Vector   22  Occ=0.000000D+00  E= 2.896573D-01

 Vector   23  Occ=0.000000D+00  E= 3.560512D-01

 Vector   24  Occ=0.000000D+00  E= 6.550782D-01

 Vector    1  Occ=1.000000D+00  E=-1.479052D+01

 Vector    2  Occ=1.000000D+00  E=-1.055198D+01

 Vector    3  Occ=1.000000D+00  E=-8.715373D-01

 Vector    4  Occ=1.000000D+00  E=-7.661054D-01

 Vector    5  Occ=1.000000D+00  E=-4.955245D-01

 Vector    6  Occ=1.000000D+00  E=-4.790087D-01

 Vector    7  Occ=1.000000D+00  E=-4.756228D-01

 Vector    8  Occ=1.000000D+00  E=-3.716140D-01

 Vector    9  Occ=0.000000D+00  E=-6.234042D-02

 Vector   10  Occ=0.000000D+00  E=-6.062681D-02

 Vector   11  Occ=0.000000D+00  E= 2.870896D-02

 Vector   12  Occ=0.000000D+00  E= 6.351814D-02

 Vector   13  Occ=0.000000D+00  E= 7.086919D-02

 Vector   14  Occ=0.000000D+00  E= 7.202562D-02

 Vector   15  Occ=0.000000D+00  E= 1.066038D-01

 Vector   16  Occ=0.000000D+00  E= 1.471476D-01

 Vector   17  Occ=0.000000D+00  E= 1.610394D-01

 Vector   18  Occ=0.000000D+00  E= 1.935832D-01

 Vector   19  Occ=0.000000D+00  E= 2.318606D-01

 Vector   20  Occ=0.000000D+00  E= 2.343566D-01

 Vector   21  Occ=0.000000D+00  E= 2.684618D-01

 Vector   22  Occ=0.000000D+00  E= 2.933226D-01

 Vector   23  Occ=0.000000D+00  E= 3.970931D-01

 Vector   24  Occ=0.000000D+00  E= 6.673977D-01

     Multipole analysis of the density
     ---------------------------------

     L   x y z        total         alpha         beta         nuclear
     -   - - -        -----         -----         ----         -------
     0   0 0 0      0.000000    -10.000000     -8.000000     18.000000

     1   1 0 0      0.617704      0.451553      0.166151      0.000000
     1   0 1 0     -0.443967     -1.574827      1.130860      0.000000
     1   0 0 1      0.000131     -0.000040      0.000171      0.000000

     2   2 0 0    -10.555691    -10.298955     -9.540828      9.284092
     2   1 1 0      2.239491      0.206973     -0.531153      2.563672
     2   1 0 1      0.001389      0.000493      0.000886      0.000010
     2   0 2 0    -12.897111    -69.995144    -54.369873    111.467905
     2   0 1 1     -0.000706      0.000089     -0.000062     -0.000733

 Total times  cpu:       17.5s     wall:       20.5s
