============================== echo of input deck ==============================
echo
memory total 2000 Mb
start cosmo_h2o_bq_dat

#permanent_dir ./perm
#scratch_dir ./data

geometry "bq_end" nocenter noautosym noautoz
H    0.290  -1.478   2.133
O    -0.526  -1.642   2.602
H   -0.729  -0.989   3.278
Bq   1.49104334820998       -1.12622254780829        2.48477745219171  charge     -1.038081477585204E-002
bQ   0.641777452191707      -0.276956651790021        2.48477745219171 charge      1.038081477585204E-002
end

geometry "bq_mid" nocenter noautosym noautoz
H    0.290  -1.478   2.133
Bq   1.49104334820998       -1.12622254780829        2.48477745219171  charge     -1.038081477585204E-002
bQ   0.641777452191707      -0.276956651790021        2.48477745219171 charge      1.038081477585204E-002
O    -0.526  -1.642   2.602
H   -0.729  -0.989   3.278
end

basis "atoms_only"
* library 6-31G
end

basis "atoms_bq"
* library 6-31G
bQ library h 6-31G
Bq library h cc-pVQZ
end

dft
print medium tasks
xc hfexch
iterations 200
noio
direct
GRID nodisk
end

set "geometry" "bq_end"
set "ao basis" "atoms_only"
set dft:xcreplicated f
set fock:replicated .false.
task dft energy

set "geometry" "bq_mid"
set dft:xcreplicated f
set fock:replicated .false.
task dft energy

set "ao basis" "atoms_bq"
set dft:xcreplicated f
set fock:replicated .false.
task dft energy
================================================================================

 Output coordinates in angstroms (scale by  1.889725989 to convert to a.u.)

  No.       Tag          Charge          X              Y              Z
 ---- ---------------- ---------- -------------- -------------- --------------
    1 H                    1.0000     0.29000000    -1.47800000     2.13300000
    2 Bq                  -0.0104     1.49104335    -1.12622255     2.48477745
    3 bQ                   0.0104     0.64177745    -0.27695665     2.48477745
    4 O                    8.0000    -0.52600000    -1.64200000     2.60200000
    5 H                    1.0000    -0.72900000    -0.98900000     3.27800000

         Total DFT energy =      -75.984915663890

 Vector    1  Occ=2.000000D+00  E=-2.055340D+01

 Vector    2  Occ=2.000000D+00  E=-1.345497D+00

 Vector    3  Occ=2.000000D+00  E=-7.253733D-01

 Vector    4  Occ=2.000000D+00  E=-5.424425D-01

 Vector    5  Occ=2.000000D+00  E=-4.967008D-01

 Vector    6  Occ=0.000000D+00  E= 2.047020D-01

 Vector    7  Occ=0.000000D+00  E= 3.012164D-01

 Vector    8  Occ=0.000000D+00  E= 1.118535D+00

 Vector    9  Occ=0.000000D+00  E= 1.133066D+00

 Vector   10  Occ=0.000000D+00  E= 1.168005D+00

 Vector   11  Occ=0.000000D+00  E= 1.204110D+00

 Vector   12  Occ=0.000000D+00  E= 1.389530D+00

 Vector   13  Occ=0.000000D+00  E= 1.668674D+00

         Total DFT energy =      -75.984915665193

 Vector    1  Occ=2.000000D+00  E=-2.055340D+01

 Vector    2  Occ=2.000000D+00  E=-1.345498D+00

 Vector    3  Occ=2.000000D+00  E=-7.253766D-01

 Vector    4  Occ=2.000000D+00  E=-5.424403D-01

 Vector    5  Occ=2.000000D+00  E=-4.967019D-01

 Vector    6  Occ=0.000000D+00  E= 2.047031D-01

 Vector    7  Occ=0.000000D+00  E= 3.012160D-01

 Vector    8  Occ=0.000000D+00  E= 1.118536D+00

 Vector    9  Occ=0.000000D+00  E= 1.133067D+00

 Vector   10  Occ=0.000000D+00  E= 1.168004D+00

 Vector   11  Occ=0.000000D+00  E= 1.204111D+00

 Vector   12  Occ=0.000000D+00  E= 1.389530D+00

 Vector   13  Occ=0.000000D+00  E= 1.668674D+00

         Total DFT energy =      -75.991963415886

                       DFT Final Molecular Orbital Analysis
                       ------------------------------------

 Vector    1  Occ=2.000000D+00  E=-2.056204D+01

 Vector    2  Occ=2.000000D+00  E=-1.351096D+00

 Vector    3  Occ=2.000000D+00  E=-7.312943D-01

 Vector    4  Occ=2.000000D+00  E=-5.492341D-01

 Vector    5  Occ=2.000000D+00  E=-5.023709D-01

 Vector    6  Occ=0.000000D+00  E= 9.971468D-02

 Vector    7  Occ=0.000000D+00  E= 2.439471D-01

 Vector    8  Occ=0.000000D+00  E= 3.203737D-01

 Vector    9  Occ=0.000000D+00  E= 3.372837D-01

 Vector   10  Occ=0.000000D+00  E= 4.871329D-01

 Vector   11  Occ=0.000000D+00  E= 5.931791D-01

 Vector   12  Occ=0.000000D+00  E= 7.052462D-01

 Vector   13  Occ=0.000000D+00  E= 7.528734D-01

 Vector   14  Occ=0.000000D+00  E= 1.136085D+00

 Vector   15  Occ=0.000000D+00  E= 1.174997D+00

     Multipole analysis of the density
     ---------------------------------

     L   x y z        total         alpha         beta         nuclear
     -   - - -        -----         -----         ----         -------
     0   0 0 0     -0.000000     -5.000000     -5.000000     10.000000

     1   1 0 0      0.489882      4.635719      4.635719     -8.781557
     1   0 1 0      0.695037     15.090216     15.090216    -29.485395
     1   0 0 1      0.190550    -24.685647    -24.685647     49.561844

     2   2 0 0     -5.095894     -7.599127     -7.599127     10.102359
     2   1 1 0     -2.325847    -14.022142    -14.022142     25.718437
     2   1 0 1      1.137944     23.281491     23.281491    -45.425038
     2   0 2 0     -8.957936    -48.638601    -48.638601     88.319266
     2   0 1 1      3.555536     74.224642     74.224642   -144.893749

 Total times  cpu:        5.5s     wall:        6.5s
