 Output coordinates in angstroms (scale by  1.889725989 to convert to a.u.)

  No.       Tag          Charge          X              Y              Z
 ---- ---------------- ---------- -------------- -------------- --------------
    1 H                    1.0000     0.29000000    -1.47800000     2.13300000
    2 O                    8.0000    -0.52600000    -1.64200000     2.60200000
    3 H                    1.0000    -0.72900000    -0.98900000     3.27800000

         Total DFT energy =      -76.000925164961

                       DFT Final Molecular Orbital Analysis
                       ------------------------------------

 Vector    1  Occ=2.000000D+00  E=-2.055174D+01

 Vector    2  Occ=2.000000D+00  E=-1.342223D+00

 Vector    3  Occ=2.000000D+00  E=-7.215300D-01

 Vector    4  Occ=2.000000D+00  E=-5.515978D-01

 Vector    5  Occ=2.000000D+00  E=-5.006946D-01

 Vector    6  Occ=0.000000D+00  E= 2.275588D-01

 Vector    7  Occ=0.000000D+00  E= 3.266709D-01

 Vector    8  Occ=0.000000D+00  E= 1.121705D+00

 Vector    9  Occ=0.000000D+00  E= 1.149908D+00

 Vector   10  Occ=0.000000D+00  E= 1.160500D+00

 Vector   11  Occ=0.000000D+00  E= 1.187773D+00

 Vector   12  Occ=0.000000D+00  E= 1.387430D+00

 Vector   13  Occ=0.000000D+00  E= 1.674099D+00

     Multipole analysis of the density
     ---------------------------------

     L   x y z        total         alpha         beta         nuclear
     -   - - -        -----         -----         ----         -------
     0   0 0 0      0.000000     -5.000000     -5.000000     10.000000

     1   1 0 0      0.627549      4.704553      4.704553     -8.781557
     1   0 1 0      0.834529     15.159962     15.159962    -29.485395
     1   0 0 1      0.210306    -24.675769    -24.675769     49.561844

     2   2 0 0     -5.147432     -7.624895     -7.624895     10.102359
     2   1 1 0     -2.798454    -14.258446    -14.258446     25.718437
     2   1 0 1      1.766585     23.595812     23.595812    -45.425038
     2   0 2 0     -9.633867    -48.976567    -48.976567     88.319266
     2   0 1 1      4.214867     74.554308     74.554308   -144.893749

 Total times  cpu:        0.5s     wall:        0.6s
