============================== echo of input deck ==============================
echo
title "M06-L/LanL2DZ ECP Cu2  "

start cu2

geometry
Cu 0.0 0.0 0.0
Cu 0.0 0.0 2.259
end

basis
* library "LANL2DZ ECP"
end
ecp
* library "LANL2DZ ECP"
end

dft
xc m06-L
mult 1
grid fine
 tolerances tight
end

task dft
================================================================================

 Output coordinates in angstroms (scale by  1.889725989 to convert to a.u.)

  No.       Tag          Charge          X              Y              Z
 ---- ---------------- ---------- -------------- -------------- --------------
    1 Cu                  29.0000     0.00000000     0.00000000    -1.12950000
    2 Cu                  29.0000     0.00000000     0.00000000     1.12950000

         Total DFT energy =     -392.327935458751

                       DFT Final Molecular Orbital Analysis
                       ------------------------------------

 Vector    8  Occ=2.000000D+00  E=-2.719087D+00  Symmetry=eg

 Vector    9  Occ=2.000000D+00  E=-2.061267D-01  Symmetry=a1g

 Vector   10  Occ=2.000000D+00  E=-1.860558D-01  Symmetry=eu

 Vector   11  Occ=2.000000D+00  E=-1.860558D-01  Symmetry=eu

 Vector   12  Occ=2.000000D+00  E=-1.677179D-01  Symmetry=a1g

 Vector   13  Occ=2.000000D+00  E=-1.673722D-01  Symmetry=b2g

 Vector   14  Occ=2.000000D+00  E=-1.673722D-01  Symmetry=b1g

 Vector   15  Occ=2.000000D+00  E=-1.605030D-01  Symmetry=b2u

 Vector   16  Occ=2.000000D+00  E=-1.605029D-01  Symmetry=b1u

 Vector   17  Occ=2.000000D+00  E=-1.553385D-01  Symmetry=eg

 Vector   18  Occ=2.000000D+00  E=-1.553385D-01  Symmetry=eg

 Vector   19  Occ=2.000000D+00  E=-1.542671D-01  Symmetry=a2u

 Vector   20  Occ=0.000000D+00  E=-7.760689D-02  Symmetry=a2u

 Vector   21  Occ=0.000000D+00  E=-2.117947D-03  Symmetry=eu

 Vector   22  Occ=0.000000D+00  E=-2.117947D-03  Symmetry=eu

 Vector   23  Occ=0.000000D+00  E= 1.700782D-02  Symmetry=a1g

 Vector   24  Occ=0.000000D+00  E= 2.747412D-02  Symmetry=a2u

 Vector   25  Occ=0.000000D+00  E= 4.560376D-02  Symmetry=eg

 Vector   26  Occ=0.000000D+00  E= 4.560376D-02  Symmetry=eg

 Vector   27  Occ=0.000000D+00  E= 7.078451D-02  Symmetry=eu

 Vector   28  Occ=0.000000D+00  E= 7.078451D-02  Symmetry=eu

 Vector   29  Occ=0.000000D+00  E= 9.028287D-02  Symmetry=a1g

 Vector   30  Occ=0.000000D+00  E= 1.386762D-01  Symmetry=eg

 Vector   31  Occ=0.000000D+00  E= 1.386762D-01  Symmetry=eg

 Vector   32  Occ=0.000000D+00  E= 2.218723D-01  Symmetry=a2u

 Vector   33  Occ=0.000000D+00  E= 2.594181D-01  Symmetry=a1g

 Vector   34  Occ=0.000000D+00  E= 4.316116D-01  Symmetry=a2u

 Vector   35  Occ=0.000000D+00  E= 7.163145D-01  Symmetry=eu

     Multipole analysis of the density
     ---------------------------------

     L   x y z        total         alpha         beta         nuclear
     -   - - -        -----         -----         ----         -------
     0   0 0 0      0.000000    -19.000000    -19.000000     38.000000

     1   1 0 0      0.000000      0.000000      0.000000      0.000000
     1   0 1 0      0.000000      0.000000      0.000000      0.000000
     1   0 0 1      0.000000      0.000000      0.000000      0.000000

     2   2 0 0    -19.818316     -9.909158     -9.909158      0.000000
     2   1 1 0     -0.000005     -0.000002     -0.000002      0.000000
     2   1 0 1      0.000000      0.000000      0.000000      0.000000
     2   0 2 0    -19.818320     -9.909160     -9.909160      0.000000
     2   0 1 1      0.000000      0.000000      0.000000      0.000000

 Total times  cpu:        4.0s     wall:        6.5s
