============================== echo of input deck ==============================

echo

start dft_ozone

#
# Ozone --- check C2V symmetry for all local and non-local density approximations
#           DFT
#

geometry units au noprint  # 3-21g RHF singlet optimized geometry
  symmetry c2v
  O       0.000000   0.000000  -0.769844
  O       0.000000   1.961067   0.384922
end

basis noprint
  O library 6-31g*
end

dft; grid fine; convergence  energy 1d-9; end

title "Ozone --- case t1: in-core DFT energy (LDA/LSD)"
task dft energy
title "Ozone --- case t2: in-core DFT analytic gradient (LDA/LSD)"
task dft gradient
#title "Ozone --- case t3: in-core DFT numeric gradient (LDA/LSD)"
#task dft gradient numerical

title "Ozone --- case t4: in-core DFT energy (NLDA/NLSD)"
dft; xc becke88 perdew86; end
task dft energy
title "Ozone --- case t5: in-core DFT analytic gradient (NLDA/NLSD)"
task dft gradient
#title "Ozone --- case t6: in-core DFT numeric gradient (NLDA/NLSD)"
#task dft gradient numerical

title "Ozone --- case t7: in-core DFT energy (NLDA/NLSD)"
dft; xc becke88 perdew91; end
task dft energy
title "Ozone --- case t8: in-core DFT analytic gradient (NLDA/NLSD)"
task dft gradient
#title "Ozone --- case t9: in-core DFT numeric gradient (NLDA/NLSD)"
#task dft gradient numerical

title "Ozone --- case t10: in-core DFT energy (combination potentials)"
dft; xc acm; end
task dft energy
title "Ozone --- case t11: in-core DFT analytic gradient (combination potentials)"
task dft gradient
#title "Ozone --- case t12: in-core DFT numeric gradient (combination potentials)"
#task dft gradient numerical

title "Ozone --- case t13: in-core DFT energy (combination potentials)"
dft; xc b3lyp; end
task dft energy
title "Ozone --- case t14: in-core DFT analytic gradient (combination potentials)"
task dft gradient
#title "Ozone --- case t15: in-core DFT numeric gradient (combination potentials)"
#task dft gradient numerical

================================================================================

         Total DFT energy =     -223.844935396335
         Total DFT energy =   -223.844935396335
         Total DFT energy =     -225.429299437198

 Vector    6  Occ=2.000000D+00  E=-6.820722D-01  Symmetry=a1

 Vector    7  Occ=2.000000D+00  E=-5.742542D-01  Symmetry=b1

 Vector    8  Occ=2.000000D+00  E=-5.433590D-01  Symmetry=a1

 Vector    9  Occ=2.000000D+00  E=-5.337510D-01  Symmetry=b2

 Vector   10  Occ=2.000000D+00  E=-3.274140D-01  Symmetry=a2

 Vector   11  Occ=2.000000D+00  E=-2.823689D-01  Symmetry=b2

 Vector   12  Occ=2.000000D+00  E=-2.661558D-01  Symmetry=a1

 Vector   13  Occ=0.000000D+00  E=-1.901920D-01  Symmetry=b1

 Vector   14  Occ=0.000000D+00  E= 1.033170D-01  Symmetry=a1

 Vector   15  Occ=0.000000D+00  E= 1.978115D-01  Symmetry=b2

 Vector   16  Occ=0.000000D+00  E= 5.633168D-01  Symmetry=a1

 Vector   17  Occ=0.000000D+00  E= 6.600496D-01  Symmetry=b2

 Vector   18  Occ=0.000000D+00  E= 6.764574D-01  Symmetry=a1

 Vector   19  Occ=0.000000D+00  E= 6.997709D-01  Symmetry=b1

 Vector   20  Occ=0.000000D+00  E= 7.480801D-01  Symmetry=a1

 Vector   21  Occ=0.000000D+00  E= 7.990684D-01  Symmetry=b2

 Vector   22  Occ=0.000000D+00  E= 8.367412D-01  Symmetry=a2

         Total DFT energy =   -225.429299437198
         Total DFT energy =     -225.409220136645

 Vector    2  Occ=2.000000D+00  E=-1.888858D+01  Symmetry=b2

 Vector    3  Occ=2.000000D+00  E=-1.888857D+01  Symmetry=a1

 Vector    4  Occ=2.000000D+00  E=-1.320444D+00  Symmetry=a1

 Vector    5  Occ=2.000000D+00  E=-1.046138D+00  Symmetry=b2

 Vector    6  Occ=2.000000D+00  E=-6.784338D-01  Symmetry=a1

 Vector    7  Occ=2.000000D+00  E=-5.707451D-01  Symmetry=b1

 Vector    8  Occ=2.000000D+00  E=-5.397856D-01  Symmetry=a1

 Vector    9  Occ=2.000000D+00  E=-5.303841D-01  Symmetry=b2

 Vector   10  Occ=2.000000D+00  E=-3.241074D-01  Symmetry=a2

 Vector   11  Occ=2.000000D+00  E=-2.789569D-01  Symmetry=b2

 Vector   12  Occ=2.000000D+00  E=-2.625972D-01  Symmetry=a1

 Vector   13  Occ=0.000000D+00  E=-1.870143D-01  Symmetry=b1

 Vector   14  Occ=0.000000D+00  E= 1.075652D-01  Symmetry=a1

 Vector   15  Occ=0.000000D+00  E= 2.018653D-01  Symmetry=b2

 Vector   16  Occ=0.000000D+00  E= 5.718494D-01  Symmetry=a1

 Vector   17  Occ=0.000000D+00  E= 6.678135D-01  Symmetry=b2

 Vector   18  Occ=0.000000D+00  E= 6.841661D-01  Symmetry=a1

 Vector   19  Occ=0.000000D+00  E= 7.074768D-01  Symmetry=b1

 Vector   20  Occ=0.000000D+00  E= 7.554321D-01  Symmetry=a1

 Vector   21  Occ=0.000000D+00  E= 8.061826D-01  Symmetry=b2

 Vector   22  Occ=0.000000D+00  E= 8.438250D-01  Symmetry=a2

         Total DFT energy =   -225.409220136645
         Total DFT energy =     -225.320850973749

 Vector    2  Occ=2.000000D+00  E=-1.925037D+01  Symmetry=b2

 Vector    3  Occ=2.000000D+00  E=-1.925034D+01  Symmetry=a1

 Vector    4  Occ=2.000000D+00  E=-1.433703D+00  Symmetry=a1

 Vector    5  Occ=2.000000D+00  E=-1.144224D+00  Symmetry=b2

 Vector    6  Occ=2.000000D+00  E=-7.660511D-01  Symmetry=a1

 Vector    7  Occ=2.000000D+00  E=-6.358514D-01  Symmetry=b1

 Vector    8  Occ=2.000000D+00  E=-6.146353D-01  Symmetry=a1

 Vector    9  Occ=2.000000D+00  E=-5.986384D-01  Symmetry=b2

 Vector   10  Occ=2.000000D+00  E=-3.676510D-01  Symmetry=a2

 Vector   11  Occ=2.000000D+00  E=-3.445266D-01  Symmetry=b2

 Vector   12  Occ=2.000000D+00  E=-3.265126D-01  Symmetry=a1

 Vector   13  Occ=0.000000D+00  E=-1.631908D-01  Symmetry=b1

 Vector   14  Occ=0.000000D+00  E= 1.541741D-01  Symmetry=a1

 Vector   15  Occ=0.000000D+00  E= 2.503278D-01  Symmetry=b2

 Vector   16  Occ=0.000000D+00  E= 6.082425D-01  Symmetry=a1

 Vector   17  Occ=0.000000D+00  E= 7.114046D-01  Symmetry=b2

 Vector   18  Occ=0.000000D+00  E= 7.277824D-01  Symmetry=a1

 Vector   19  Occ=0.000000D+00  E= 7.596337D-01  Symmetry=b1

 Vector   20  Occ=0.000000D+00  E= 8.048769D-01  Symmetry=a1

 Vector   21  Occ=0.000000D+00  E= 8.544913D-01  Symmetry=b2

 Vector   22  Occ=0.000000D+00  E= 8.986664D-01  Symmetry=a2

         Total DFT energy =   -225.320850973749
         Total DFT energy =     -225.397498578004

                       DFT Final Molecular Orbital Analysis
                       ------------------------------------

 Vector    2  Occ=2.000000D+00  E=-1.926069D+01  Symmetry=b2

 Vector    3  Occ=2.000000D+00  E=-1.926066D+01  Symmetry=a1

 Vector    4  Occ=2.000000D+00  E=-1.426161D+00  Symmetry=a1

 Vector    5  Occ=2.000000D+00  E=-1.137666D+00  Symmetry=b2

 Vector    6  Occ=2.000000D+00  E=-7.613221D-01  Symmetry=a1

 Vector    7  Occ=2.000000D+00  E=-6.316011D-01  Symmetry=b1

 Vector    8  Occ=2.000000D+00  E=-6.111096D-01  Symmetry=a1

 Vector    9  Occ=2.000000D+00  E=-5.945410D-01  Symmetry=b2

 Vector   10  Occ=2.000000D+00  E=-3.643897D-01  Symmetry=a2

 Vector   11  Occ=2.000000D+00  E=-3.429270D-01  Symmetry=b2

 Vector   12  Occ=2.000000D+00  E=-3.251552D-01  Symmetry=a1

 Vector   13  Occ=0.000000D+00  E=-1.612843D-01  Symmetry=b1

 Vector   14  Occ=0.000000D+00  E= 1.545441D-01  Symmetry=a1

 Vector   15  Occ=0.000000D+00  E= 2.502589D-01  Symmetry=b2

 Vector   16  Occ=0.000000D+00  E= 6.040253D-01  Symmetry=a1

 Vector   17  Occ=0.000000D+00  E= 7.047710D-01  Symmetry=b2

 Vector   18  Occ=0.000000D+00  E= 7.204456D-01  Symmetry=a1

 Vector   19  Occ=0.000000D+00  E= 7.525989D-01  Symmetry=b1

 Vector   20  Occ=0.000000D+00  E= 7.979102D-01  Symmetry=a1

 Vector   21  Occ=0.000000D+00  E= 8.496409D-01  Symmetry=b2

 Vector   22  Occ=0.000000D+00  E= 8.919670D-01  Symmetry=a2

     Multipole analysis of the density
     ---------------------------------

     L   x y z        total         alpha         beta         nuclear
     -   - - -        -----         -----         ----         -------
     0   0 0 0      0.000000    -12.000000    -12.000000     24.000000

     1   1 0 0      0.000000      0.000000      0.000000      0.000000
     1   0 1 0      0.000000      0.000000      0.000000      0.000000
     1   0 0 1     -0.258688     -0.129344     -0.129344      0.000000

     2   2 0 0    -10.489553     -5.244776     -5.244776      0.000000
     2   1 1 0      0.000000      0.000000      0.000000      0.000000
     2   1 0 1      0.000000      0.000000      0.000000      0.000000
     2   0 2 0    -12.625892    -37.079216    -37.079216     61.532540
     2   0 1 1      0.000000      0.000000      0.000000      0.000000

         Total DFT energy =   -225.397498578004
 Total times  cpu:        3.6s     wall:        4.0s
