 Output coordinates in angstroms (scale by  1.889725989 to convert to a.u.)

  No.       Tag          Charge          X              Y              Z
 ---- ---------------- ---------- -------------- -------------- --------------
    1 H                    1.0000     0.83416136    -0.27826910     0.00000000
    2 O                    8.0000    -0.10568557    -0.06518357     0.00000000
    3 H                    1.0000     0.01132321     0.79973769     0.00000000
    4 bqO                  0.0000     0.00534794     2.64382800     0.00000000
    5 XH                   0.0000    -0.47301688     2.98399720     0.76645218
    6 XH                   0.0000    -0.47301688     2.98399720    -0.76645218

         Total DFT energy =      -75.866200495409

 Vector    1  Occ=2.000000D+00  E=-1.861789D+01  Symmetry=a'

 Vector    2  Occ=2.000000D+00  E=-9.567361D-01  Symmetry=a'

 Vector    3  Occ=2.000000D+00  E=-4.835095D-01  Symmetry=a'

 Vector    4  Occ=2.000000D+00  E=-3.654627D-01  Symmetry=a'

 Vector    5  Occ=2.000000D+00  E=-2.759394D-01  Symmetry=a"

 Vector    6  Occ=0.000000D+00  E=-3.212476D-02  Symmetry=a'

 Vector    7  Occ=0.000000D+00  E= 2.235805D-02  Symmetry=a'

 Vector    8  Occ=0.000000D+00  E= 4.685987D-02  Symmetry=a"

 Vector    9  Occ=0.000000D+00  E= 5.667535D-02  Symmetry=a'

 Vector   10  Occ=0.000000D+00  E= 7.973049D-02  Symmetry=a'

 Vector   11  Occ=0.000000D+00  E= 1.074855D-01  Symmetry=a'

 Vector   12  Occ=0.000000D+00  E= 1.159856D-01  Symmetry=a'

 Vector   13  Occ=0.000000D+00  E= 1.290399D-01  Symmetry=a"

 Vector   14  Occ=0.000000D+00  E= 1.526586D-01  Symmetry=a'

 Vector   15  Occ=0.000000D+00  E= 1.660333D-01  Symmetry=a"

 Vector   16  Occ=0.000000D+00  E= 1.814509D-01  Symmetry=a'

 Vector   17  Occ=0.000000D+00  E= 1.952894D-01  Symmetry=a'

 Vector   18  Occ=0.000000D+00  E= 2.387814D-01  Symmetry=a'

 Vector   19  Occ=0.000000D+00  E= 2.688067D-01  Symmetry=a"

 Vector   20  Occ=0.000000D+00  E= 2.722350D-01  Symmetry=a'

 Vector   21  Occ=0.000000D+00  E= 3.113126D-01  Symmetry=a'

 Vector   22  Occ=0.000000D+00  E= 3.395945D-01  Symmetry=a"

 Vector   23  Occ=0.000000D+00  E= 3.548755D-01  Symmetry=a"

 Vector   24  Occ=0.000000D+00  E= 3.697954D-01  Symmetry=a'

 Vector   25  Occ=0.000000D+00  E= 4.041585D-01  Symmetry=a'

 Vector   26  Occ=0.000000D+00  E= 4.518619D-01  Symmetry=a'

 Vector   27  Occ=0.000000D+00  E= 4.707135D-01  Symmetry=a'

 Vector   28  Occ=0.000000D+00  E= 4.793958D-01  Symmetry=a"

 Vector   29  Occ=0.000000D+00  E= 4.964978D-01  Symmetry=a'

 Vector   30  Occ=0.000000D+00  E= 5.252258D-01  Symmetry=a"

         Total DFT energy =      -75.866200514139

                       DFT Final Molecular Orbital Analysis
                       ------------------------------------

 Vector    1  Occ=2.000000D+00  E=-1.861791D+01  Symmetry=a'

 Vector    2  Occ=2.000000D+00  E=-9.567538D-01  Symmetry=a'

 Vector    3  Occ=2.000000D+00  E=-4.835234D-01  Symmetry=a'

 Vector    4  Occ=2.000000D+00  E=-3.654766D-01  Symmetry=a'

 Vector    5  Occ=2.000000D+00  E=-2.759552D-01  Symmetry=a"

 Vector    6  Occ=0.000000D+00  E=-3.213038D-02  Symmetry=a'

 Vector    7  Occ=0.000000D+00  E= 2.235526D-02  Symmetry=a'

 Vector    8  Occ=0.000000D+00  E= 4.685730D-02  Symmetry=a"

 Vector    9  Occ=0.000000D+00  E= 5.667286D-02  Symmetry=a'

 Vector   10  Occ=0.000000D+00  E= 7.972533D-02  Symmetry=a'

 Vector   11  Occ=0.000000D+00  E= 1.074823D-01  Symmetry=a'

 Vector   12  Occ=0.000000D+00  E= 1.159814D-01  Symmetry=a'

 Vector   13  Occ=0.000000D+00  E= 1.290336D-01  Symmetry=a"

 Vector   14  Occ=0.000000D+00  E= 1.526548D-01  Symmetry=a'

 Vector   15  Occ=0.000000D+00  E= 1.660292D-01  Symmetry=a"

 Vector   16  Occ=0.000000D+00  E= 1.814479D-01  Symmetry=a'

 Vector   17  Occ=0.000000D+00  E= 1.952843D-01  Symmetry=a'

 Vector   18  Occ=0.000000D+00  E= 2.387760D-01  Symmetry=a'

 Vector   19  Occ=0.000000D+00  E= 2.688014D-01  Symmetry=a"

 Vector   20  Occ=0.000000D+00  E= 2.722302D-01  Symmetry=a'

 Vector   21  Occ=0.000000D+00  E= 3.113056D-01  Symmetry=a'

 Vector   22  Occ=0.000000D+00  E= 3.395877D-01  Symmetry=a"

 Vector   23  Occ=0.000000D+00  E= 3.548725D-01  Symmetry=a"

 Vector   24  Occ=0.000000D+00  E= 3.697924D-01  Symmetry=a'

 Vector   25  Occ=0.000000D+00  E= 4.041547D-01  Symmetry=a'

 Vector   26  Occ=0.000000D+00  E= 4.518585D-01  Symmetry=a'

 Vector   27  Occ=0.000000D+00  E= 4.707098D-01  Symmetry=a'

 Vector   28  Occ=0.000000D+00  E= 4.793924D-01  Symmetry=a"

 Vector   29  Occ=0.000000D+00  E= 4.964930D-01  Symmetry=a'

 Vector   30  Occ=0.000000D+00  E= 5.252216D-01  Symmetry=a"

     Multipole analysis of the density
     ---------------------------------

     L   x y z        total         alpha         beta         nuclear
     -   - - -        -----         -----         ----         -------
     0   0 0 0      0.000000     -5.000000     -5.000000     10.000000

     1   1 0 0      0.648981      0.324491      0.324491      0.000000
     1   0 1 0      0.422090      0.211045      0.211045      0.000000
     1   0 0 1      0.000000      0.000000      0.000000      0.000000

     2   2 0 0     -4.293435     -3.548912     -3.548912      2.804389
     2   1 1 0     -0.469041      0.065367      0.065367     -0.599775
     2   1 0 1      0.000000      0.000000      0.000000      0.000000
     2   0 2 0     -4.131861     -3.406875     -3.406875      2.681888
     2   0 1 1      0.000000      0.000000      0.000000      0.000000

 Total times  cpu:        2.9s     wall:        3.2s
