============================== echo of input deck ==============================
echo
title "ch4+ mpw1k from S. Parthiban and J.M.L. Martin JCP 114,6014-6029 (2001)"
start dft_mpw1k

geometry
 C      -0.17835627    -0.07079230     0.00000000
 H       0.60168160    -0.93456635     0.00000000
 H      -0.51729906    -1.18414149     0.00000000
 H      -0.28986450     0.42953812     0.94477639
 H      -0.28986450     0.42953812    -0.94477639
end
charge 1d0
basis
* library cc-pvtz
end

dft
xc mpw1k
mult 2
end

task dft optimize
================================================================================

         Total DFT energy =      -40.059462906293
@ Step       Energy      Delta E   Gmax     Grms     Xrms     Xmax   Walltime
@ ---- ---------------- -------- -------- -------- -------- -------- --------
@    0     -40.05946291  0.0D+00  0.00547  0.00293  0.00000  0.00000      4.6
         Total DFT energy =      -40.059786085741
         Total DFT energy =      -40.059806673289
@    1     -40.05980667 -3.4D-04  0.00123  0.00076  0.01970  0.03917     10.3
         Total DFT energy =      -40.059832422017
         Total DFT energy =      -40.059835734281

 Vector   19  Occ=0.000000D+00  E= 4.999352D-01  Symmetry=a1

 Vector   20  Occ=0.000000D+00  E= 5.535533D-01  Symmetry=b2

@    2     -40.05983573 -2.9D-05  0.00054  0.00033  0.00360  0.00769     14.7
         Total DFT energy =      -40.059839580782

 Vector    1  Occ=1.000000D+00  E=-1.086900D+01  Symmetry=a1

 Vector    2  Occ=1.000000D+00  E=-1.185612D+00  Symmetry=a1

 Vector    3  Occ=1.000000D+00  E=-8.740113D-01  Symmetry=a1

 Vector    4  Occ=1.000000D+00  E=-8.179366D-01  Symmetry=b2

 Vector    5  Occ=1.000000D+00  E=-7.287197D-01  Symmetry=b1

 Vector    6  Occ=0.000000D+00  E=-2.057381D-01  Symmetry=a1

 Vector    7  Occ=0.000000D+00  E=-1.706001D-01  Symmetry=b1

 Vector    8  Occ=0.000000D+00  E=-1.101095D-01  Symmetry=a1

 Vector    9  Occ=0.000000D+00  E=-8.655715D-02  Symmetry=b2

 Vector   10  Occ=0.000000D+00  E=-1.072404D-02  Symmetry=b2

 Vector   11  Occ=0.000000D+00  E=-1.449233D-03  Symmetry=a1

 Vector   12  Occ=0.000000D+00  E= 1.687914D-02  Symmetry=b1

 Vector   13  Occ=0.000000D+00  E= 5.482367D-02  Symmetry=a1

 Vector   14  Occ=0.000000D+00  E= 1.535906D-01  Symmetry=a1

 Vector   15  Occ=0.000000D+00  E= 1.809124D-01  Symmetry=b1

 Vector   16  Occ=0.000000D+00  E= 2.314533D-01  Symmetry=a1

 Vector   17  Occ=0.000000D+00  E= 2.505894D-01  Symmetry=b2

 Vector   18  Occ=0.000000D+00  E= 2.567068D-01  Symmetry=a2

 Vector   19  Occ=0.000000D+00  E= 4.673690D-01  Symmetry=a1

 Vector   20  Occ=0.000000D+00  E= 5.486959D-01  Symmetry=b2

 Vector    1  Occ=1.000000D+00  E=-1.085599D+01  Symmetry=a1

 Vector    2  Occ=1.000000D+00  E=-1.122463D+00  Symmetry=a1

 Vector    3  Occ=1.000000D+00  E=-8.540501D-01  Symmetry=a1

 Vector    4  Occ=1.000000D+00  E=-8.089541D-01  Symmetry=b2

 Vector    5  Occ=0.000000D+00  E=-4.576770D-01  Symmetry=b1

 Vector    6  Occ=0.000000D+00  E=-1.892534D-01  Symmetry=a1

 Vector    7  Occ=0.000000D+00  E=-1.143440D-01  Symmetry=b1

 Vector    8  Occ=0.000000D+00  E=-1.047903D-01  Symmetry=a1

 Vector    9  Occ=0.000000D+00  E=-8.255936D-02  Symmetry=b2

 Vector   10  Occ=0.000000D+00  E=-4.528253D-03  Symmetry=b2

 Vector   11  Occ=0.000000D+00  E= 1.826697D-03  Symmetry=a1

 Vector   12  Occ=0.000000D+00  E= 4.741878D-02  Symmetry=b1

 Vector   13  Occ=0.000000D+00  E= 8.503774D-02  Symmetry=a1

 Vector   14  Occ=0.000000D+00  E= 1.724265D-01  Symmetry=a1

 Vector   15  Occ=0.000000D+00  E= 2.239864D-01  Symmetry=b1

 Vector   16  Occ=0.000000D+00  E= 2.382204D-01  Symmetry=a1

 Vector   17  Occ=0.000000D+00  E= 2.551333D-01  Symmetry=b2

 Vector   18  Occ=0.000000D+00  E= 2.896007D-01  Symmetry=a2

 Vector   19  Occ=0.000000D+00  E= 5.007824D-01  Symmetry=a1

         Total DFT energy =    -40.059839580782
@    3     -40.05983958 -3.8D-06  0.00018  0.00010  0.00168  0.00269     17.6
         Total DFT energy =      -40.059839981232

                    DFT Final Alpha Molecular Orbital Analysis
                    ------------------------------------------

 Vector    1  Occ=1.000000D+00  E=-1.086902D+01  Symmetry=a1

 Vector    2  Occ=1.000000D+00  E=-1.185776D+00  Symmetry=a1

 Vector    3  Occ=1.000000D+00  E=-8.739206D-01  Symmetry=a1

 Vector    4  Occ=1.000000D+00  E=-8.180562D-01  Symmetry=b2

 Vector    5  Occ=1.000000D+00  E=-7.287314D-01  Symmetry=b1

 Vector    6  Occ=0.000000D+00  E=-2.056764D-01  Symmetry=a1

 Vector    7  Occ=0.000000D+00  E=-1.704367D-01  Symmetry=b1

 Vector    8  Occ=0.000000D+00  E=-1.102347D-01  Symmetry=a1

 Vector    9  Occ=0.000000D+00  E=-8.654421D-02  Symmetry=b2

 Vector   10  Occ=0.000000D+00  E=-1.066085D-02  Symmetry=b2

 Vector   11  Occ=0.000000D+00  E=-1.517386D-03  Symmetry=a1

 Vector   12  Occ=0.000000D+00  E= 1.688495D-02  Symmetry=b1

 Vector   13  Occ=0.000000D+00  E= 5.482402D-02  Symmetry=a1

 Vector   14  Occ=0.000000D+00  E= 1.536131D-01  Symmetry=a1

 Vector   15  Occ=0.000000D+00  E= 1.809964D-01  Symmetry=b1

 Vector   16  Occ=0.000000D+00  E= 2.312906D-01  Symmetry=a1

 Vector   17  Occ=0.000000D+00  E= 2.505769D-01  Symmetry=b2

 Vector   18  Occ=0.000000D+00  E= 2.566070D-01  Symmetry=a2

 Vector   19  Occ=0.000000D+00  E= 4.675640D-01  Symmetry=a1

 Vector   20  Occ=0.000000D+00  E= 5.489333D-01  Symmetry=b2

 Vector    1  Occ=1.000000D+00  E=-1.085601D+01  Symmetry=a1

 Vector    2  Occ=1.000000D+00  E=-1.122614D+00  Symmetry=a1

 Vector    3  Occ=1.000000D+00  E=-8.539680D-01  Symmetry=a1

 Vector    4  Occ=1.000000D+00  E=-8.090735D-01  Symmetry=b2

 Vector    5  Occ=0.000000D+00  E=-4.576448D-01  Symmetry=b1

 Vector    6  Occ=0.000000D+00  E=-1.892037D-01  Symmetry=a1

 Vector    7  Occ=0.000000D+00  E=-1.142173D-01  Symmetry=b1

 Vector    8  Occ=0.000000D+00  E=-1.049044D-01  Symmetry=a1

 Vector    9  Occ=0.000000D+00  E=-8.255252D-02  Symmetry=b2

 Vector   10  Occ=0.000000D+00  E=-4.460477D-03  Symmetry=b2

 Vector   11  Occ=0.000000D+00  E= 1.742485D-03  Symmetry=a1

 Vector   12  Occ=0.000000D+00  E= 4.743058D-02  Symmetry=b1

 Vector   13  Occ=0.000000D+00  E= 8.505645D-02  Symmetry=a1

 Vector   14  Occ=0.000000D+00  E= 1.724385D-01  Symmetry=a1

 Vector   15  Occ=0.000000D+00  E= 2.240828D-01  Symmetry=b1

 Vector   16  Occ=0.000000D+00  E= 2.380512D-01  Symmetry=a1

 Vector   17  Occ=0.000000D+00  E= 2.551232D-01  Symmetry=b2

 Vector   18  Occ=0.000000D+00  E= 2.894913D-01  Symmetry=a2

 Vector   19  Occ=0.000000D+00  E= 5.009852D-01  Symmetry=a1

     Multipole analysis of the density
     ---------------------------------

     L   x y z        total         alpha         beta         nuclear
     -   - - -        -----         -----         ----         -------
     0   0 0 0      1.000000     -5.000000     -4.000000     10.000000

     1   1 0 0      0.000000      0.000000      0.000000      0.000000
     1   0 1 0      0.000000      0.000000      0.000000      0.000000
     1   0 0 1     -0.565343     -0.145745     -0.578606      0.159009

     2   2 0 0     -4.363446     -4.392488     -2.155484      2.184526
     2   1 1 0      0.000000      0.000000      0.000000      0.000000
     2   1 0 1      0.000000      0.000000      0.000000      0.000000
     2   0 2 0     -3.707722     -5.342762     -4.885084      6.520124
     2   0 1 1      0.000000      0.000000      0.000000      0.000000

         Total DFT energy =    -40.059839981232
@    4     -40.05983998 -4.0D-07  0.00001  0.00000  0.00068  0.00114     20.2
@    4     -40.05983998 -4.0D-07  0.00001  0.00000  0.00068  0.00114     20.2

 Output coordinates in angstroms (scale by  1.889725989 to convert to a.u.)

  No.       Tag          Charge          X              Y              Z
 ---- ---------------- ---------- -------------- -------------- --------------
    1 C                    6.0000     0.00000000     0.00000000     0.11688061
    2 H                    1.0000    -0.55305053     0.00000000    -0.92443025
    3 H                    1.0000     0.55305053     0.00000000    -0.92443025
    4 H                    1.0000     0.00000000     0.95546351     0.61586035
    5 H                    1.0000     0.00000000    -0.95546351     0.61586035

 Total times  cpu:       18.7s     wall:       20.2s
