============================== echo of input deck ==============================
echo
title "test5 M05-2X/6-31+G*  NH2 + CH3 TS single point"
start dft_m05nh2ch3

geometry
C       -1.199577    -.011126    -.000030
N        1.400715     .129862     .000015
H       -1.426660    -.512932     .933057
H       -1.419907    -.591382    -.888143
H       -1.520237    1.022806    -.045783
H         .188926     .126896     .001001
H        1.570338    -.887667    -.000053
end

basis
* library 6-31++G**
end

dft
xc  m05-2x
mult 3
grid fine
end

task dft

================================================================================

 Output coordinates in angstroms (scale by  1.889725989 to convert to a.u.)

  No.       Tag          Charge          X              Y              Z
 ---- ---------------- ---------- -------------- -------------- --------------
    1 C                    6.0000    -0.01894486    -1.19947916    -0.00002200
    2 N                    7.0000    -0.09471245     1.40352975     0.00000423
    3 H                    1.0000     0.47700421    -1.43906203     0.93307063
    4 H                    1.0000     0.55561339    -1.43429021    -0.88812877
    5 H                    1.0000    -1.06058897    -1.49412331    -0.04578127
    6 H                    1.0000    -0.12212079     0.19204712     0.00099846
    7 H                    1.0000     0.92674845     1.54759517    -0.00005661

         Total DFT energy =      -95.685828323032

                    DFT Final Alpha Molecular Orbital Analysis
                    ------------------------------------------

 Vector    1  Occ=1.000000D+00  E=-1.484255D+01

 Vector    2  Occ=1.000000D+00  E=-1.058902D+01

 Vector    3  Occ=1.000000D+00  E=-9.603884D-01

 Vector    4  Occ=1.000000D+00  E=-8.060746D-01

 Vector    5  Occ=1.000000D+00  E=-5.466433D-01

 Vector    6  Occ=1.000000D+00  E=-4.968709D-01

 Vector    7  Occ=1.000000D+00  E=-4.955838D-01

 Vector    8  Occ=1.000000D+00  E=-4.408200D-01

 Vector    9  Occ=1.000000D+00  E=-3.974863D-01

 Vector   10  Occ=1.000000D+00  E=-3.014061D-01

 Vector   11  Occ=0.000000D+00  E= 2.352445D-02

 Vector   12  Occ=0.000000D+00  E= 5.186337D-02

 Vector   13  Occ=0.000000D+00  E= 6.640537D-02

 Vector   14  Occ=0.000000D+00  E= 7.242753D-02

 Vector   15  Occ=0.000000D+00  E= 9.509597D-02

 Vector   16  Occ=0.000000D+00  E= 1.262541D-01

 Vector   17  Occ=0.000000D+00  E= 1.451848D-01

 Vector   18  Occ=0.000000D+00  E= 1.524723D-01

 Vector   19  Occ=0.000000D+00  E= 1.752533D-01

 Vector   20  Occ=0.000000D+00  E= 1.798489D-01

 Vector   21  Occ=0.000000D+00  E= 1.985825D-01

 Vector   22  Occ=0.000000D+00  E= 2.279141D-01

 Vector   23  Occ=0.000000D+00  E= 2.552938D-01

 Vector   24  Occ=0.000000D+00  E= 2.617141D-01

 Vector   25  Occ=0.000000D+00  E= 2.633773D-01

 Vector   26  Occ=0.000000D+00  E= 3.201506D-01

 Vector   27  Occ=0.000000D+00  E= 3.322615D-01

 Vector   28  Occ=0.000000D+00  E= 4.306491D-01

 Vector   29  Occ=0.000000D+00  E= 7.249140D-01

 Vector    1  Occ=1.000000D+00  E=-1.481822D+01

 Vector    2  Occ=1.000000D+00  E=-1.058059D+01

 Vector    3  Occ=1.000000D+00  E=-8.740323D-01

 Vector    4  Occ=1.000000D+00  E=-7.739574D-01

 Vector    5  Occ=1.000000D+00  E=-4.982934D-01

 Vector    6  Occ=1.000000D+00  E=-4.879831D-01

 Vector    7  Occ=1.000000D+00  E=-4.825402D-01

 Vector    8  Occ=1.000000D+00  E=-3.725401D-01

 Vector    9  Occ=0.000000D+00  E=-5.479245D-02

 Vector   10  Occ=0.000000D+00  E=-5.072814D-02

 Vector   11  Occ=0.000000D+00  E= 3.623422D-02

 Vector   12  Occ=0.000000D+00  E= 7.166039D-02

 Vector   13  Occ=0.000000D+00  E= 8.007081D-02

 Vector   14  Occ=0.000000D+00  E= 8.534380D-02

 Vector   15  Occ=0.000000D+00  E= 1.173269D-01

 Vector   16  Occ=0.000000D+00  E= 1.367819D-01

 Vector   17  Occ=0.000000D+00  E= 1.532908D-01

 Vector   18  Occ=0.000000D+00  E= 1.568003D-01

 Vector   19  Occ=0.000000D+00  E= 1.790974D-01

 Vector   20  Occ=0.000000D+00  E= 2.117980D-01

 Vector   21  Occ=0.000000D+00  E= 2.215125D-01

 Vector   22  Occ=0.000000D+00  E= 2.281231D-01

 Vector   23  Occ=0.000000D+00  E= 2.733448D-01

 Vector   24  Occ=0.000000D+00  E= 2.750156D-01

 Vector   25  Occ=0.000000D+00  E= 2.775441D-01

 Vector   26  Occ=0.000000D+00  E= 3.172213D-01

 Vector   27  Occ=0.000000D+00  E= 3.598317D-01

 Vector   28  Occ=0.000000D+00  E= 4.647115D-01

 Vector   29  Occ=0.000000D+00  E= 7.382690D-01

     Multipole analysis of the density
     ---------------------------------

     L   x y z        total         alpha         beta         nuclear
     -   - - -        -----         -----         ----         -------
     0   0 0 0      0.000000    -10.000000     -8.000000     18.000000

     1   1 0 0      0.615725      0.435671      0.180054      0.000000
     1   0 1 0     -0.523574     -1.573440      1.049865      0.000000
     1   0 0 1     -0.000012     -0.000097      0.000085      0.000000

     2   2 0 0    -10.476316    -10.296662     -9.463746      9.284092
     2   1 1 0      2.244764      0.155397     -0.474305      2.563672
     2   1 0 1      0.001267      0.000457      0.000800      0.000010
     2   0 2 0    -12.816246    -69.871201    -54.412950    111.467905
     2   0 1 1     -0.000913     -0.000098     -0.000082     -0.000733

 Total times  cpu:       19.8s     wall:       20.1s
