============================== echo of input deck ==============================
echo
start

title "parent diels-alder - constrained geometry optimization + saddle search"

# tests constrained optimization, saddle search,
# use of constraints with symmetry

# norbornene = -269.369082   r = 1.56877

geometry autosym  # Equil nonbornene geometry
  C   -0.56970319    -1.24200248     0.66145412
  C   -0.56970319    -1.24200248    -0.66145412
  C    0.30163937    -0.07585222     1.13282212
  C    0.30163937    -0.07585222    -1.13282212
  C    1.36288212    -0.05150460     0.00000000
  C   -0.51211483     1.21947833     0.78501047
  C   -0.51211483     1.21947833    -0.78501047
  H    0.66051824    -0.12617315    -2.14778696
  H    0.66051824    -0.12617315     2.14778696
  H    1.96152178     0.85159285     0.00000000
  H   -1.51147362     1.18303369    -1.19517710
  H   -1.51147362     1.18303369     1.19517710
  H   -1.13480012    -1.87777806    -1.31030500
  H   -1.13480012    -1.87777806     1.31030500
  H    1.99285293    -0.93012745     0.00000000
  H   -0.01020068     2.09823148     1.17132500
  H   -0.01020068     2.09823148    -1.17132500
end

basis
  c library 3-21g
  h library 3-21g
end

scf; print low; thresh 1e-6; end

geometry adjust  # move to guess geometry & apply constraints
  zcoord
    bond 6 3 2.2 r constant
    bond 7 4 2.2 r constant
  end
end

#pause
task scf optimize  # relax with constraints

geometry adjust  # release constraints
  zcoord
    bond 6 3 2.2 r
    bond 7 4 2.2 r
  end
end

task scf saddle  # go for the TS

================================================================================

         Total SCF energy =   -269.211796672700
@ Step       Energy      Delta E   Gmax     Grms     Xrms     Xmax   Walltime
@ ---- ---------------- -------- -------- -------- -------- -------- --------
@    0    -269.21179667  0.0D+00  0.03357  0.00625  0.00000  0.00000      1.8
         Total SCF energy =   -269.236222463055
         Total SCF energy =   -269.247880485481
@    1    -269.24788049 -3.6D-02  0.02408  0.00485  0.15304  0.29792      4.6
         Total SCF energy =   -269.258566515664
         Total SCF energy =   -269.261551431032
@    2    -269.26155143 -1.4D-02  0.01313  0.00261  0.08449  0.20885      7.5
         Total SCF energy =   -269.265813578597
         Total SCF energy =   -269.267675011046
@    3    -269.26767501 -6.1D-03  0.01590  0.00242  0.06923  0.16422     10.3
         Total SCF energy =   -269.269592235433
         Total SCF energy =   -269.269692439224
@    4    -269.26969244 -2.0D-03  0.00268  0.00056  0.03491  0.09009     12.9
         Total SCF energy =   -269.270006086910
         Total SCF energy =   -269.270014385937
@    5    -269.27001439 -3.2D-04  0.00122  0.00028  0.01814  0.05447     15.5
         Total SCF energy =   -269.270099556129
         Total SCF energy =   -269.270112469057
@    6    -269.27011247 -9.8D-05  0.00144  0.00028  0.00664  0.01625     18.0
         Total SCF energy =   -269.270151168968
         Total SCF energy =   -269.270156372108
@    7    -269.27015637 -4.4D-05  0.00040  0.00010  0.00443  0.01496     20.6
         Total SCF energy =   -269.270164468856
         Total SCF energy =   -269.270165466217
@    8    -269.27016547 -9.1D-06  0.00056  0.00007  0.00200  0.00457     23.0
         Total SCF energy =   -269.270167940593
         Total SCF energy =   -269.270168198752
@    9    -269.27016820 -2.7D-06  0.00033  0.00005  0.00125  0.00351     25.2
         Total SCF energy =   -269.270169438926
         Total SCF energy =   -269.270169918736
@   10    -269.27016992 -1.7D-06  0.00011  0.00003  0.00117  0.00333     27.3
         Total SCF energy =   -269.270170413805
         Total SCF energy =   -269.270170551226
@   11    -269.27017055 -6.3D-07  0.00007  0.00001  0.00072  0.00232     29.3
         Total SCF energy =   -269.270170659440
         Total SCF energy =   -269.270170686318
@   12    -269.27017069 -1.4D-07  0.00004  0.00001  0.00026  0.00087     31.2
@   12    -269.27017069 -1.4D-07  0.00004  0.00001  0.00026  0.00087     31.2
         Total SCF energy =   -269.270170686302
@ Step       Energy      Delta E   Gmax     Grms     Xrms     Xmax   Walltime
@ ---- ---------------- -------- -------- -------- -------- -------- --------
@    0    -269.27017069  0.0D+00  0.00131  0.00017  0.00000  0.00000     32.2
         Total SCF energy =   -269.270167303733
@    1    -269.27016730  3.4D-06  0.00129  0.00017  0.00035  0.00073     33.4
         Total SCF energy =   -269.270158601973
@    2    -269.27015860  8.7D-06  0.00010  0.00002  0.00235  0.00548     34.9
         Total SCF energy =   -269.270158740518
@    3    -269.27015874 -1.4D-07  0.00002  0.00000  0.00016  0.00033     36.1
@    3    -269.27015874 -1.4D-07  0.00002  0.00000  0.00016  0.00033     36.1

 Output coordinates in angstroms (scale by  1.889725989 to convert to a.u.)

  No.       Tag          Charge          X              Y              Z
 ---- ---------------- ---------- -------------- -------------- --------------
    1 C                    6.0000     0.45183659    -1.30510526     0.70032084
    2 C                    6.0000     0.45183659    -1.30510526    -0.70032084
    3 C                    6.0000    -0.44776807    -0.35717871     1.15705961
    4 C                    6.0000    -0.44776807    -0.35717871    -1.15705961
    5 C                    6.0000    -1.38084743    -0.04582287     0.00000000
    6 C                    6.0000     0.68977086     1.47179730     0.68599864
    7 C                    6.0000     0.68977086     1.47179730    -0.68599864
    8 H                    1.0000    -0.71983275    -0.21550724    -2.18226763
    9 H                    1.0000    -0.71983275    -0.21550724     2.18226763
   10 H                    1.0000    -1.81940455     0.93741680     0.00000000
   11 H                    1.0000     1.56900253     1.19362653    -1.22984663
   12 H                    1.0000     1.56900253     1.19362653     1.22984663
   13 H                    1.0000     1.13229456    -1.85527432    -1.31537858
   14 H                    1.0000     1.13229456    -1.85527432     1.31537858
   15 H                    1.0000    -2.17281056    -0.79614742     0.00000000
   16 H                    1.0000    -0.00494186     2.08676491     1.22619105
   17 H                    1.0000    -0.00494186     2.08676491    -1.22619105

 Total times  cpu:       34.4s     wall:       36.2s
