============================== echo of input deck ==============================
# calculation for methane dimer Grimme JCC 2004
# with BLYP/TZVP2P
echo

title "ch4_2"

start ch4_2

geometry units angstroms noautoz
 C 0.00000000 0.00000000 1.78977169
 H 0.00000000 0.00000000 2.88489619
 H -0.72912121 0.72912121 1.42221856
 H -0.26687689 -0.99599810 1.42221856
 H 0.99599810 0.26687689 1.42221856
 C 0.00000000 0.00000000 -1.78977169
 H -0.99599810 -0.26687689 -1.42221856
 H 0.00000000 0.00000000 -2.88489619
 H 0.72912121 -0.72912121 -1.42221856
 H 0.26687689 0.99599810 -1.42221856
end

basis "ao basis" spherical noprint
# basis set TZVP2P(2d,2p), polarization from aug-cc-pvtz
  C    S
     13575.349682000      0.00022246
      2035.233368000      0.00172327
       463.225623590      0.00892557
       131.200195980      0.03572798
        42.853015891      0.11076260
        15.584185766      0.24295628
  C    S
         6.206713851      0.41440263
         2.576489653      0.23744969
  C    S
         0.576963394      1.00000000
  C    S
         0.229728314      1.00000000
  C    S
         0.095164440      1.00000000
  C    P
        34.697232244      0.00533337
         7.958262283      0.03586411
         2.378082688      0.14215873
         0.814332082      0.34270472
  C    P
         0.288875473      1.00000000
  C    P
         0.100568237      1.00000000
#aug-cc-pVTZ part for C
   C   D
   1.0970000000       1.0000000000
   C   D
  0.31800000000       1.0000000000

    H  S
    34.061341      .60251978E-02
    5.1235746      .45021094E-01
    1.1646626      .20189726
    H  S
    .32723041      1.0000000
    H  S
    .10307241      1.0000000
#aug-cc-pVTZ part for H
   H   P
   1.4070000000       1.0000000000
   H   P
  0.38800000000       1.0000000000

end

basis "cd basis"  spherical noprint
  *   library "Ahlrichs Coulomb Fitting"
end

dft
 xc  becke88 1. lyp 1.
 vectors output ch4_2.movecs
 direct
 disp vdw 1
end
task dft optimize
================================================================================

         Total DFT energy =      -81.003756108935

 Vector    1  Occ=2.000000D+00  E=-9.887177D+00  Symmetry=a1g

 Vector    2  Occ=2.000000D+00  E=-9.887172D+00  Symmetry=a2u

 Vector    3  Occ=2.000000D+00  E=-6.207843D-01  Symmetry=a1g

 Vector    4  Occ=2.000000D+00  E=-6.155020D-01  Symmetry=a2u

 Vector    5  Occ=2.000000D+00  E=-3.494649D-01  Symmetry=a1g

 Vector    6  Occ=2.000000D+00  E=-3.456492D-01  Symmetry=eu

 Vector    7  Occ=2.000000D+00  E=-3.456492D-01  Symmetry=eu

 Vector    8  Occ=2.000000D+00  E=-3.391740D-01  Symmetry=eg

 Vector    9  Occ=2.000000D+00  E=-3.391740D-01  Symmetry=eg

 Vector   10  Occ=2.000000D+00  E=-3.359572D-01  Symmetry=a2u

 Vector   11  Occ=0.000000D+00  E= 1.290327D-02  Symmetry=a1g

 Vector   12  Occ=0.000000D+00  E= 6.023581D-02  Symmetry=a2u

 Vector   13  Occ=0.000000D+00  E= 9.337329D-02  Symmetry=eu

 Vector   14  Occ=0.000000D+00  E= 9.337329D-02  Symmetry=eu

 Vector   15  Occ=0.000000D+00  E= 9.493752D-02  Symmetry=a1g

 Vector   16  Occ=0.000000D+00  E= 1.078798D-01  Symmetry=eg

 Vector   17  Occ=0.000000D+00  E= 1.078798D-01  Symmetry=eg

 Vector   18  Occ=0.000000D+00  E= 1.127132D-01  Symmetry=a2u

 Vector   19  Occ=0.000000D+00  E= 1.753243D-01  Symmetry=a1g

 Vector   20  Occ=0.000000D+00  E= 1.827713D-01  Symmetry=eu

 Vector   21  Occ=0.000000D+00  E= 1.827713D-01  Symmetry=eu

 Vector   22  Occ=0.000000D+00  E= 1.901002D-01  Symmetry=eg

 Vector   23  Occ=0.000000D+00  E= 1.901002D-01  Symmetry=eg

 Vector   24  Occ=0.000000D+00  E= 3.593874D-01  Symmetry=a2u

 Vector   25  Occ=0.000000D+00  E= 3.654066D-01  Symmetry=a1g

 Vector   26  Occ=0.000000D+00  E= 4.049275D-01  Symmetry=a2u

 Vector   27  Occ=0.000000D+00  E= 4.109215D-01  Symmetry=eg

 Vector   28  Occ=0.000000D+00  E= 4.109215D-01  Symmetry=eg

 Vector   29  Occ=0.000000D+00  E= 4.197060D-01  Symmetry=eu

 Vector   30  Occ=0.000000D+00  E= 4.197060D-01  Symmetry=eu

 Vector   31  Occ=0.000000D+00  E= 4.247473D-01  Symmetry=a2u

 Vector   32  Occ=0.000000D+00  E= 4.365742D-01  Symmetry=a1g

 Vector   33  Occ=0.000000D+00  E= 4.829154D-01  Symmetry=eu

 Vector   34  Occ=0.000000D+00  E= 4.829154D-01  Symmetry=eu

 Vector   35  Occ=0.000000D+00  E= 4.908081D-01  Symmetry=a1g

 Vector   36  Occ=0.000000D+00  E= 5.215607D-01  Symmetry=eg

@ Step       Energy      Delta E   Gmax     Grms     Xrms     Xmax   Walltime
@ ---- ---------------- -------- -------- -------- -------- -------- --------
@    0     -81.00375611  0.0D+00  0.00023  0.00006  0.00000  0.00000      3.2
         Total DFT energy =      -81.003756163453

                       DFT Final Molecular Orbital Analysis
                       ------------------------------------

 Vector    1  Occ=2.000000D+00  E=-9.887150D+00  Symmetry=a1g

 Vector    2  Occ=2.000000D+00  E=-9.887145D+00  Symmetry=a2u

 Vector    3  Occ=2.000000D+00  E=-6.207816D-01  Symmetry=a1g

 Vector    4  Occ=2.000000D+00  E=-6.155032D-01  Symmetry=a2u

 Vector    5  Occ=2.000000D+00  E=-3.495305D-01  Symmetry=a1g

 Vector    6  Occ=2.000000D+00  E=-3.456116D-01  Symmetry=eu

 Vector    7  Occ=2.000000D+00  E=-3.456116D-01  Symmetry=eu

 Vector    8  Occ=2.000000D+00  E=-3.391373D-01  Symmetry=eg

 Vector    9  Occ=2.000000D+00  E=-3.391373D-01  Symmetry=eg

 Vector   10  Occ=2.000000D+00  E=-3.360285D-01  Symmetry=a2u

 Vector   11  Occ=0.000000D+00  E= 1.290390D-02  Symmetry=a1g

 Vector   12  Occ=0.000000D+00  E= 6.024346D-02  Symmetry=a2u

 Vector   13  Occ=0.000000D+00  E= 9.335186D-02  Symmetry=eu

 Vector   14  Occ=0.000000D+00  E= 9.335186D-02  Symmetry=eu

 Vector   15  Occ=0.000000D+00  E= 9.499661D-02  Symmetry=a1g

 Vector   16  Occ=0.000000D+00  E= 1.078729D-01  Symmetry=eg

 Vector   17  Occ=0.000000D+00  E= 1.078729D-01  Symmetry=eg

 Vector   18  Occ=0.000000D+00  E= 1.127549D-01  Symmetry=a2u

 Vector   19  Occ=0.000000D+00  E= 1.752866D-01  Symmetry=a1g

 Vector   20  Occ=0.000000D+00  E= 1.827694D-01  Symmetry=eu

 Vector   21  Occ=0.000000D+00  E= 1.827694D-01  Symmetry=eu

 Vector   22  Occ=0.000000D+00  E= 1.901086D-01  Symmetry=eg

 Vector   23  Occ=0.000000D+00  E= 1.901086D-01  Symmetry=eg

 Vector   24  Occ=0.000000D+00  E= 3.593518D-01  Symmetry=a2u

 Vector   25  Occ=0.000000D+00  E= 3.654023D-01  Symmetry=a1g

 Vector   26  Occ=0.000000D+00  E= 4.050346D-01  Symmetry=a2u

 Vector   27  Occ=0.000000D+00  E= 4.108738D-01  Symmetry=eg

 Vector   28  Occ=0.000000D+00  E= 4.108738D-01  Symmetry=eg

 Vector   29  Occ=0.000000D+00  E= 4.196688D-01  Symmetry=eu

 Vector   30  Occ=0.000000D+00  E= 4.196688D-01  Symmetry=eu

 Vector   31  Occ=0.000000D+00  E= 4.247620D-01  Symmetry=a2u

 Vector   32  Occ=0.000000D+00  E= 4.366223D-01  Symmetry=a1g

 Vector   33  Occ=0.000000D+00  E= 4.829271D-01  Symmetry=eu

 Vector   34  Occ=0.000000D+00  E= 4.829271D-01  Symmetry=eu

 Vector   35  Occ=0.000000D+00  E= 4.908964D-01  Symmetry=a1g

 Vector   36  Occ=0.000000D+00  E= 5.215583D-01  Symmetry=eg

     Multipole analysis of the density
     ---------------------------------

     L   x y z        total         alpha         beta         nuclear
     -   - - -        -----         -----         ----         -------
     0   0 0 0      0.000000    -10.000000    -10.000000     20.000000

     1   1 0 0      0.000000      0.000000      0.000000      0.000000
     1   0 1 0      0.000000      0.000000      0.000000      0.000000
     1   0 0 1      0.000000      0.000000      0.000000      0.000000

     2   2 0 0    -12.782053    -12.086386    -12.086386     11.390720
     2   1 1 0      0.000000      0.000000      0.000000      0.000000
     2   1 0 1      0.000000      0.000000      0.000000      0.000000
     2   0 2 0    -12.782053    -12.086386    -12.086386     11.390720
     2   0 1 1      0.000000      0.000000      0.000000      0.000000

         Total DFT energy =    -81.003756163453
@    1     -81.00375616 -5.5D-08  0.00013  0.00005  0.00012  0.00046      4.7
@    1     -81.00375616 -5.5D-08  0.00013  0.00005  0.00012  0.00046      4.7

 Output coordinates in angstroms (scale by  1.889725989 to convert to a.u.)

  No.       Tag          Charge          X              Y              Z
 ---- ---------------- ---------- -------------- -------------- --------------
    1 C                    6.0000     0.00000000     0.00000000    -1.79001537
    2 H                    1.0000     0.00000000     0.00000000    -2.88482433
    3 H                    1.0000    -0.72912355     0.72912355    -1.42222666
    4 H                    1.0000     0.99600130     0.26687774    -1.42222666
    5 H                    1.0000    -0.26687774    -0.99600130    -1.42222666
    6 C                    6.0000     0.00000000     0.00000000     1.79001537
    7 H                    1.0000     0.26687774     0.99600130     1.42222666
    8 H                    1.0000     0.00000000     0.00000000     2.88482433
    9 H                    1.0000     0.72912355    -0.72912355     1.42222666
   10 H                    1.0000    -0.99600130    -0.26687774     1.42222666

 Total times  cpu:        4.6s     wall:        4.7s
