============================== echo of input deck ==============================
echo

title "dmo_tddft_cd"

memory 800 mb
#memory global 73 mb stack 20 mb heap 5 mb

start dmo_tddft_cd

geometry units angstrom
symmetry c1
C       -1.0434290        0.6153280       -0.0615190
C        0.1515990       -0.0360920        0.4888630
H        0.1531120       -0.2526560        1.5570100
O       -0.8257760       -0.7892730       -0.2415100
H       -0.9522010        1.2186250       -0.9624750
H       -1.8701630        0.8793260        0.5941530
C        1.5090730        0.0997910       -0.1483000
H        2.0832840        0.9000390        0.3286960
H        1.4131530        0.3248980       -1.2127570
H        2.0755690       -0.8302050       -0.0468100
end

basis
  * library sto-3g
end

charge 0

scf
  semidirect filesize 0
  maxiter 100
end

set int:cando_txs f
dft
  convergence energy 1d-8 nolevelshifting
  xc b3lyp
  iterations 100
  direct
  print medium
end

tddft
  rpa
  singlet
  notriplet
  nroots 1
  cdspectrum
end
task tddft energy
================================================================================

 Output coordinates in angstroms (scale by  1.889725989 to convert to a.u.)

  No.       Tag          Charge          X              Y              Z
 ---- ---------------- ---------- -------------- -------------- --------------
    1 C                    6.0000    -1.04342913     0.61532784    -0.06151903
    2 C                    6.0000     0.15159888    -0.03609216     0.48886297
    3 H                    1.0000     0.15311188    -0.25265616     1.55700997
    4 O                    8.0000    -0.82577613    -0.78927316    -0.24151003
    5 H                    1.0000    -0.95220113     1.21862484    -0.96247503
    6 H                    1.0000    -1.87016313     0.87932584     0.59415297
    7 C                    6.0000     1.50907288     0.09979084    -0.14830003
    8 H                    1.0000     2.08328388     0.90003884     0.32869597
    9 H                    1.0000     1.41315288     0.32489784    -1.21275703
   10 H                    1.0000     2.07556888    -0.83020516    -0.04681003

         Total DFT energy =     -190.645936705277

                       DFT Final Molecular Orbital Analysis
                       ------------------------------------

 Vector    4  Occ=2.000000D+00  E=-1.001815D+01

 Vector    5  Occ=2.000000D+00  E=-1.020613D+00

 Vector    6  Occ=2.000000D+00  E=-7.092899D-01

 Vector    7  Occ=2.000000D+00  E=-6.167690D-01

 Vector    8  Occ=2.000000D+00  E=-5.580712D-01

 Vector    9  Occ=2.000000D+00  E=-4.648786D-01

 Vector   10  Occ=2.000000D+00  E=-4.162590D-01

 Vector   11  Occ=2.000000D+00  E=-3.892398D-01

 Vector   12  Occ=2.000000D+00  E=-3.611016D-01

 Vector   13  Occ=2.000000D+00  E=-3.364853D-01

 Vector   14  Occ=2.000000D+00  E=-3.056766D-01

 Vector   15  Occ=2.000000D+00  E=-2.325406D-01

 Vector   16  Occ=2.000000D+00  E=-1.526754D-01

 Vector   17  Occ=0.000000D+00  E= 2.311575D-01

 Vector   18  Occ=0.000000D+00  E= 3.106689D-01

 Vector   19  Occ=0.000000D+00  E= 3.803588D-01

 Vector   20  Occ=0.000000D+00  E= 4.109586D-01

 Vector   21  Occ=0.000000D+00  E= 4.370190D-01

 Vector   22  Occ=0.000000D+00  E= 4.425216D-01

 Vector   23  Occ=0.000000D+00  E= 4.683223D-01

 Vector   24  Occ=0.000000D+00  E= 4.859826D-01

 Vector   25  Occ=0.000000D+00  E= 5.466313D-01

 Vector   26  Occ=0.000000D+00  E= 5.682171D-01

     Multipole analysis of the density
     ---------------------------------

     L   x y z        total         alpha         beta         nuclear
     -   - - -        -----         -----         ----         -------
     0   0 0 0      0.000000    -16.000000    -16.000000     32.000000

     1   1 0 0      0.237575      0.118787      0.118787      0.000000
     1   0 1 0      0.408150      0.204075      0.204075      0.000000
     1   0 0 1      0.160837      0.080419      0.080419      0.000000

     2   2 0 0    -16.922967    -81.422102    -81.422102    145.921237
     2   1 1 0     -1.049251     -0.524614     -0.524614     -0.000023
     2   1 0 1     -0.275584     -0.137802     -0.137802      0.000019
     2   0 2 0    -18.006961    -29.090569    -29.090569     40.174177
     2   0 1 1     -0.581286     -0.290648     -0.290648      0.000011

  Root  1 singlet a     0.309531495 a.u. (  8.4227841 eV)
     Dipole Oscillator Strength                          0.00016
 Total times  cpu:       12.4s     wall:       12.5s
