============================== echo of input deck ==============================
Start esp

echo

geometry units angstrom noautosym
 C                       -0.13679785    -0.00481189    -0.80451624
 H                        0.62578531    -0.32160812    -1.51482880
 H                       -1.10127411    -0.29207360    -1.22130351
 H                       -0.24376144     1.99990092    -1.63329973
 C                       -0.08716714     1.52944913    -0.66684011
 H                        0.87650355     1.85170899    -0.28321287
 H                       -0.85831843     1.88131524     0.01227783
 S                        0.12188493    -0.79841229     0.79712325
 H                        0.02330765    -2.04199613     0.33466897
end

ecce_print ecce.out

basis "ao basis" cartesian print
 H library 6-31g*
 C library 6-31g*
 S library 6-31g*
end

scf
  RHF
  nopen 0
end

driver
end

task scf energy

esp
 restrain hyperbolic
 constrain equal 2 3 4
 constrain equal 6 7
 factor 1.45d0
end

task esp
================================================================================

 Output coordinates in angstroms (scale by  1.889725989 to convert to a.u.)

  No.       Tag          Charge          X              Y              Z
 ---- ---------------- ---------- -------------- -------------- --------------
    1 C                    6.0000    -0.13469819     0.01135064    -0.79334376
    2 H                    1.0000     0.62788497    -0.30544559    -1.50365632
    3 H                    1.0000    -1.09917445    -0.27591107    -1.21013103
    4 H                    1.0000    -0.24166178     2.01606345    -1.62212725
    5 C                    6.0000    -0.08506748     1.54561166    -0.65566763
    6 H                    1.0000     0.87860321     1.86787152    -0.27204039
    7 H                    1.0000    -0.85621877     1.89747777     0.02345031
    8 S                   16.0000     0.12398459    -0.78224976     0.80829573
    9 H                    1.0000     0.02540731    -2.02583360     0.34584145

         Total SCF energy =   -476.734908767212

 Vector    8  Occ=2.000000D+00  E=-1.072123D+00

 Vector    9  Occ=2.000000D+00  E=-9.478366D-01

 Vector   10  Occ=2.000000D+00  E=-8.192700D-01

 Vector   11  Occ=2.000000D+00  E=-6.293042D-01

 Vector   12  Occ=2.000000D+00  E=-6.188525D-01

 Vector   13  Occ=2.000000D+00  E=-5.403535D-01

 Vector   14  Occ=2.000000D+00  E=-5.156756D-01

 Vector   15  Occ=2.000000D+00  E=-5.012135D-01

 Vector   16  Occ=2.000000D+00  E=-4.536593D-01

 Vector   17  Occ=2.000000D+00  E=-3.535646D-01

 Vector   18  Occ=0.000000D+00  E= 1.740067D-01

 Vector   19  Occ=0.000000D+00  E= 2.359748D-01

 Vector   20  Occ=0.000000D+00  E= 2.614616D-01

 Vector   21  Occ=0.000000D+00  E= 2.906077D-01

 Vector   22  Occ=0.000000D+00  E= 2.935499D-01

 Vector   23  Occ=0.000000D+00  E= 3.253301D-01

 Vector   24  Occ=0.000000D+00  E= 3.290857D-01

 Vector   25  Occ=0.000000D+00  E= 3.700634D-01

 Vector   26  Occ=0.000000D+00  E= 5.314332D-01

 Vector   27  Occ=0.000000D+00  E= 5.472055D-01

       Multipole analysis of the density wrt the origin
       ------------------------------------------------

     L   x y z        total         open         nuclear
     -   - - -        -----         ----         -------
     0   0 0 0      0.000000      0.000000     34.000000

     1   1 0 0     -0.117115      0.000000      0.000000
     1   0 1 0     -0.000217      0.000000      0.000000
     1   0 0 1     -0.691149      0.000000      0.000000

     2   2 0 0    -21.760996      0.000000     12.729985
     2   1 1 0      0.093452      0.000000     -9.858197
     2   1 0 1      0.084299      0.000000     11.095325
     2   0 2 0    -18.661767      0.000000    141.243464
     2   0 1 1      0.253685      0.000000    -71.037383

 Total times  cpu:        1.3s     wall:        1.4s
