============================== echo of input deck ==============================
Start  esp_uhf

echo

geometry units angstrom
 C                       -0.13679785    -0.00481189    -0.80451624
 H                        0.62578531    -0.32160812    -1.51482880
 H                       -1.10127411    -0.29207360    -1.22130351
 H                       -0.24376144     1.99990092    -1.63329973
 C                       -0.08716714     1.52944913    -0.66684011
 H                        0.87650355     1.85170899    -0.28321287
 H                       -0.85831843     1.88131524     0.01227783
 S                        0.12188493    -0.79841229     0.79712325
 H                        0.02330765    -2.04199613     0.33466897
end

ecce_print ecce.out

basis "ao basis" cartesian print
 H library 6-31g*
 C library 6-31g*
 S library 6-31g*
end

scf
  uhf
  nopen 0
end

driver
end

task scf energy

esp
 restrain hyperbolic
 constrain equal 2 3 4
 constrain equal 6 7
end

task esp
================================================================================

 Output coordinates in angstroms (scale by  1.889725989 to convert to a.u.)

  No.       Tag          Charge          X              Y              Z
 ---- ---------------- ---------- -------------- -------------- --------------
    1 C                    6.0000     0.64216868     0.48506303     0.00000000
    2 H                    1.0000     1.28246145     0.58006499     0.87603704
    3 H                    1.0000     1.28246145     0.58006499    -0.87603704
    4 H                    1.0000     0.12969595     2.59564788     0.00000000
    5 C                    6.0000    -0.38149817     1.63722664     0.00000000
    6 H                    1.0000    -1.01630211     1.58970698     0.88002813
    7 H                    1.0000    -1.01630211     1.58970698    -0.88002813
    8 S                   16.0000    -0.19662108    -1.11443663     0.00000000
    9 H                    1.0000     0.91989958    -1.83794374     0.00000000

         Total SCF energy =   -476.734908782710

 Vector    8  Occ=1.000000D+00  E=-1.072121D+00  Symmetry=a'

 Vector    9  Occ=1.000000D+00  E=-9.478336D-01  Symmetry=a'

 Vector   10  Occ=1.000000D+00  E=-8.192682D-01  Symmetry=a'

 Vector   11  Occ=1.000000D+00  E=-6.293018D-01  Symmetry=a"

 Vector   12  Occ=1.000000D+00  E=-6.188503D-01  Symmetry=a'

 Vector   13  Occ=1.000000D+00  E=-5.403502D-01  Symmetry=a'

 Vector   14  Occ=1.000000D+00  E=-5.156722D-01  Symmetry=a"

 Vector   15  Occ=1.000000D+00  E=-5.012111D-01  Symmetry=a'

 Vector   16  Occ=1.000000D+00  E=-4.536575D-01  Symmetry=a'

 Vector   17  Occ=1.000000D+00  E=-3.535637D-01  Symmetry=a"

 Vector   18  Occ=0.000000D+00  E= 1.740072D-01  Symmetry=a'

 Vector   19  Occ=0.000000D+00  E= 2.359751D-01  Symmetry=a'

 Vector   20  Occ=0.000000D+00  E= 2.614626D-01  Symmetry=a'

 Vector   21  Occ=0.000000D+00  E= 2.906090D-01  Symmetry=a"

 Vector   22  Occ=0.000000D+00  E= 2.935514D-01  Symmetry=a'

 Vector   23  Occ=0.000000D+00  E= 3.253316D-01  Symmetry=a'

 Vector   24  Occ=0.000000D+00  E= 3.290884D-01  Symmetry=a"

 Vector   25  Occ=0.000000D+00  E= 3.700659D-01  Symmetry=a'

 Vector   26  Occ=0.000000D+00  E= 5.314338D-01  Symmetry=a'

 Vector   27  Occ=0.000000D+00  E= 5.472061D-01  Symmetry=a'

 Vector    8  Occ=1.000000D+00  E=-1.072121D+00  Symmetry=a'

 Vector    9  Occ=1.000000D+00  E=-9.478336D-01  Symmetry=a'

 Vector   10  Occ=1.000000D+00  E=-8.192682D-01  Symmetry=a'

 Vector   11  Occ=1.000000D+00  E=-6.293018D-01  Symmetry=a"

 Vector   12  Occ=1.000000D+00  E=-6.188503D-01  Symmetry=a'

 Vector   13  Occ=1.000000D+00  E=-5.403502D-01  Symmetry=a'

 Vector   14  Occ=1.000000D+00  E=-5.156722D-01  Symmetry=a"

 Vector   15  Occ=1.000000D+00  E=-5.012111D-01  Symmetry=a'

 Vector   16  Occ=1.000000D+00  E=-4.536575D-01  Symmetry=a'

 Vector   17  Occ=1.000000D+00  E=-3.535637D-01  Symmetry=a"

 Vector   18  Occ=0.000000D+00  E= 1.740072D-01  Symmetry=a'

 Vector   19  Occ=0.000000D+00  E= 2.359751D-01  Symmetry=a'

 Vector   20  Occ=0.000000D+00  E= 2.614626D-01  Symmetry=a'

 Vector   21  Occ=0.000000D+00  E= 2.906090D-01  Symmetry=a"

 Vector   22  Occ=0.000000D+00  E= 2.935514D-01  Symmetry=a'

 Vector   23  Occ=0.000000D+00  E= 3.253316D-01  Symmetry=a'

 Vector   24  Occ=0.000000D+00  E= 3.290884D-01  Symmetry=a"

 Vector   25  Occ=0.000000D+00  E= 3.700659D-01  Symmetry=a'

 Vector   26  Occ=0.000000D+00  E= 5.314338D-01  Symmetry=a'

 Vector   27  Occ=0.000000D+00  E= 5.472061D-01  Symmetry=a'

       Multipole analysis of the density wrt the origin
       ------------------------------------------------

     L   x y z        total         alpha         beta         nuclear
     -   - - -        -----         -----         ----         -------
     0   0 0 0      0.000000    -17.000000    -17.000000     34.000000

     1   1 0 0      0.565400      0.282700      0.282700      0.000000
     1   0 1 0      0.414333      0.207166      0.207166      0.000000
     1   0 0 1      0.000000      0.000000      0.000000      0.000000

     2   2 0 0    -20.117201    -28.242955    -28.242955     36.368709
     2   1 1 0     -1.333792      1.958183      1.958183     -5.250158
     2   1 0 1      0.000000      0.000000      0.000000      0.000000
     2   0 2 0    -19.833979   -104.923369   -104.923369    190.012760
     2   0 1 1      0.000000      0.000000      0.000000      0.000000

 Total times  cpu:        1.3s     wall:        1.4s
