============================== echo of input deck ==============================
echo
start

basis
  * library 3-21g
end

dft
print low
iterations 1000
end

geometry nocenter noautosym noautoz
  C        0.93300        0.53200       -1.40700
  H        1.44900        0.44900       -2.39500
  O        0.72500        1.63600       -0.86500
  O        0.62500       -0.68400       -0.97500
  C       -0.55900       -1.18100        0.76400
  H        0.27700       -1.76000        1.09400
  H       -1.22500       -1.68400        0.09700
  C       -0.93000       -0.02000        1.41700
  H       -0.22400        0.89500        0.83300
  H       -1.95400        0.30300        1.32900
  H       -0.44300        0.20900        2.35000
end

constraints
fix atom 1:11
unfix atom 9
spring bond 3 9 5.0 2.54
end

driver
print low
clear
maxiter 40
xyz etf
end

task dft optimize

================================================================================

         Total DFT energy =   -264.644925974020
@ Step       Energy      Delta E   Gmax     Grms     Xrms     Xmax   Walltime
@ ---- ---------------- -------- -------- -------- -------- -------- --------
@    0    -254.93466553  0.0E+00 11.36754  2.42176  0.00000  0.00000     36.1
         Total DFT energy =   -264.625831102214
         Total DFT energy =   -264.623793259010
@    1    -264.57601827 -9.6E+00  0.93539  0.17824  0.24849  0.82414     91.4
         Total DFT energy =   -264.634735712002
         Total DFT energy =   -264.632194631279
@    2    -264.63202876 -5.6E-02  0.01749  0.00383  0.03912  0.17784    135.0
         Total DFT energy =   -264.632529714304
         Total DFT energy =   -264.633357101913
@    3    -264.63335054 -1.3E-03  0.02884  0.00507  0.01753  0.07850    174.6
         Total DFT energy =   -264.634471639858
         Total DFT energy =   -264.634188857574
@    4    -264.63411636 -7.7E-04  0.06504  0.01279  0.01780  0.07769    218.5
         Total DFT energy =   -264.634693476681
         Total DFT energy =   -264.634861530702
@    5    -264.63472427 -6.1E-04  0.06851  0.01461  0.02337  0.09501    260.7
         Total DFT energy =   -264.635151527424
         Total DFT energy =   -264.635151527424
@    6    -264.63508147 -3.6E-04  0.00488  0.00109  0.00172  0.00921    285.5
         Total DFT energy =   -264.635175731447
         Total DFT energy =   -264.635163253316
@    7    -264.63514060 -5.9E-05  0.00731  0.00163  0.00902  0.03759    322.1
         Total DFT energy =   -264.635189689789
         Total DFT energy =   -264.635198503448
@    8    -264.63514666 -6.1E-06  0.00130  0.00030  0.00046  0.00265    350.0
         Total DFT energy =   -264.635200640141
         Total DFT energy =   -264.635200640141
@    9    -264.63514873 -2.1E-06  0.00123  0.00030  0.00074  0.00362    367.7
         Total DFT energy =   -264.635203131007
         Total DFT energy =   -264.635203131007
@   10    -264.63515363 -4.9E-06  0.00064  0.00013  0.00205  0.00934    387.1
         Total DFT energy =   -264.635203891295
         Total DFT energy =   -264.635203891295
@   11    -264.63515496 -1.3E-06  0.00031  0.00006  0.00087  0.00467    406.6
         Total DFT energy =   -264.635203803928
         Total DFT energy =   -264.635203803928
@   12    -264.63515524 -2.8E-07  0.00007  0.00001  0.00050  0.00224    425.9
         Total DFT energy =   -264.635203630939
         Total DFT energy =   -264.635203630939
@   13    -264.63515523  6.2E-09  0.00001  0.00000  0.00009  0.00042    441.3
@   13    -264.63515523  6.2E-09  0.00001  0.00000  0.00009  0.00042    441.3

 Output coordinates in angstroms (scale by  1.889725989 to convert to a.u.)

  No.       Tag          Charge          X              Y              Z
 ---- ---------------- ---------- -------------- -------------- --------------
    1 C                    6.0000     0.93300000     0.53200000    -1.40700000
    2 H                    1.0000     1.44900000     0.44900000    -2.39500000
    3 O                    8.0000     0.72500000     1.63600000    -0.86500000
    4 O                    8.0000     0.62500000    -0.68400000    -0.97500000
    5 C                    6.0000    -0.55900000    -1.18100000     0.76400000
    6 H                    1.0000     0.27700000    -1.76000000     1.09400000
    7 H                    1.0000    -1.22500000    -1.68400000     0.09700000
    8 C                    6.0000    -0.93000000    -0.02000000     1.41700000
    9 H                    1.0000     0.02128562     1.19066916     0.18793668
   10 H                    1.0000    -1.95400000     0.30300000     1.32900000
   11 H                    1.0000    -0.44300000     0.20900000     2.35000000

 Total times  cpu:      285.0s     wall:      441.3s
