============================== echo of input deck ==============================
echo
title "M06/6-31+G* HF optimization "

start fh

geometry
F        0.000000    0.000000    0.108786
H        0.000000    0.000000   -0.870284
end

basis
* library 6-31+G*
end

dft
xc  m06
mult 1
grid fine
end

task dft  optimize
================================================================================

         Total DFT energy =     -100.410906798254

 Vector    1  Occ=2.000000D+00  E=-2.480784D+01  Symmetry=a1

 Vector    2  Occ=2.000000D+00  E=-1.231852D+00  Symmetry=a1

 Vector    3  Occ=2.000000D+00  E=-5.658082D-01  Symmetry=a1

 Vector    4  Occ=2.000000D+00  E=-4.331138D-01  Symmetry=e

 Vector    5  Occ=2.000000D+00  E=-4.331138D-01  Symmetry=e

 Vector    6  Occ=0.000000D+00  E= 3.954210D-02  Symmetry=a1

 Vector    7  Occ=0.000000D+00  E= 1.811336D-01  Symmetry=a1

 Vector    8  Occ=0.000000D+00  E= 1.946921D-01  Symmetry=e

 Vector    9  Occ=0.000000D+00  E= 1.946921D-01  Symmetry=e

 Vector   10  Occ=0.000000D+00  E= 2.250048D-01  Symmetry=a1

 Vector   11  Occ=0.000000D+00  E= 9.011433D-01  Symmetry=a1

 Vector   12  Occ=0.000000D+00  E= 1.463205D+00  Symmetry=e

 Vector   13  Occ=0.000000D+00  E= 1.463205D+00  Symmetry=e

 Vector   14  Occ=0.000000D+00  E= 1.514020D+00  Symmetry=a1

 Vector   15  Occ=0.000000D+00  E= 1.611944D+00  Symmetry=a1

@ Step       Energy      Delta E   Gmax     Grms     Xrms     Xmax   Walltime
@ ---- ---------------- -------- -------- -------- -------- -------- --------
@    0    -100.41090680  0.0D+00  0.04747  0.04747  0.00000  0.00000      2.6
         Total DFT energy =     -100.411829846115

 Vector    1  Occ=2.000000D+00  E=-2.480603D+01  Symmetry=a1

 Vector    2  Occ=2.000000D+00  E=-1.259068D+00  Symmetry=a1

 Vector    3  Occ=2.000000D+00  E=-5.860233D-01  Symmetry=a1

 Vector    4  Occ=2.000000D+00  E=-4.421451D-01  Symmetry=e

 Vector    5  Occ=2.000000D+00  E=-4.421451D-01  Symmetry=e

 Vector    6  Occ=0.000000D+00  E= 6.166846D-02  Symmetry=a1

 Vector    7  Occ=0.000000D+00  E= 1.785068D-01  Symmetry=a1

 Vector    8  Occ=0.000000D+00  E= 1.910185D-01  Symmetry=e

 Vector    9  Occ=0.000000D+00  E= 1.910185D-01  Symmetry=e

 Vector   10  Occ=0.000000D+00  E= 2.340211D-01  Symmetry=a1

 Vector   11  Occ=0.000000D+00  E= 1.006324D+00  Symmetry=a1

 Vector   12  Occ=0.000000D+00  E= 1.456642D+00  Symmetry=e

 Vector   13  Occ=0.000000D+00  E= 1.456642D+00  Symmetry=e

 Vector   14  Occ=0.000000D+00  E= 1.486788D+00  Symmetry=a1

 Vector   15  Occ=0.000000D+00  E= 1.583776D+00  Symmetry=a1

         Total DFT energy =     -100.413259391285

 Vector    1  Occ=2.000000D+00  E=-2.480700D+01  Symmetry=a1

 Vector    2  Occ=2.000000D+00  E=-1.246603D+00  Symmetry=a1

 Vector    3  Occ=2.000000D+00  E=-5.772631D-01  Symmetry=a1

 Vector    4  Occ=2.000000D+00  E=-4.381375D-01  Symmetry=e

 Vector    5  Occ=2.000000D+00  E=-4.381375D-01  Symmetry=e

 Vector    6  Occ=0.000000D+00  E= 5.330718D-02  Symmetry=a1

 Vector    7  Occ=0.000000D+00  E= 1.797601D-01  Symmetry=a1

 Vector    8  Occ=0.000000D+00  E= 1.926183D-01  Symmetry=e

 Vector    9  Occ=0.000000D+00  E= 1.926183D-01  Symmetry=e

 Vector   10  Occ=0.000000D+00  E= 2.286011D-01  Symmetry=a1

 Vector   11  Occ=0.000000D+00  E= 9.570234D-01  Symmetry=a1

 Vector   12  Occ=0.000000D+00  E= 1.459437D+00  Symmetry=e

 Vector   13  Occ=0.000000D+00  E= 1.459437D+00  Symmetry=e

 Vector   14  Occ=0.000000D+00  E= 1.500580D+00  Symmetry=a1

 Vector   15  Occ=0.000000D+00  E= 1.594519D+00  Symmetry=a1

@    1    -100.41325939 -2.4D-03  0.00161  0.00161  0.02626  0.04549      4.0
         Total DFT energy =     -100.413261488688

 Vector    1  Occ=2.000000D+00  E=-2.480696D+01  Symmetry=a1

 Vector    2  Occ=2.000000D+00  E=-1.247156D+00  Symmetry=a1

 Vector    3  Occ=2.000000D+00  E=-5.776686D-01  Symmetry=a1

 Vector    4  Occ=2.000000D+00  E=-4.383205D-01  Symmetry=e

 Vector    5  Occ=2.000000D+00  E=-4.383205D-01  Symmetry=e

 Vector    6  Occ=0.000000D+00  E= 5.373928D-02  Symmetry=a1

 Vector    7  Occ=0.000000D+00  E= 1.797051D-01  Symmetry=a1

 Vector    8  Occ=0.000000D+00  E= 1.925444D-01  Symmetry=e

 Vector    9  Occ=0.000000D+00  E= 1.925444D-01  Symmetry=e

 Vector   10  Occ=0.000000D+00  E= 2.287987D-01  Symmetry=a1

 Vector   11  Occ=0.000000D+00  E= 9.591776D-01  Symmetry=a1

 Vector   12  Occ=0.000000D+00  E= 1.459305D+00  Symmetry=e

 Vector   13  Occ=0.000000D+00  E= 1.459305D+00  Symmetry=e

 Vector   14  Occ=0.000000D+00  E= 1.500012D+00  Symmetry=a1

 Vector   15  Occ=0.000000D+00  E= 1.593965D+00  Symmetry=a1

         Total DFT energy =   -100.413261488688
@    2    -100.41326149 -2.1D-06  0.00030  0.00030  0.00092  0.00160      4.8
         Total DFT energy =     -100.413261559477

                       DFT Final Molecular Orbital Analysis
                       ------------------------------------

 Vector    1  Occ=2.000000D+00  E=-2.480702D+01  Symmetry=a1

 Vector    2  Occ=2.000000D+00  E=-1.247086D+00  Symmetry=a1

 Vector    3  Occ=2.000000D+00  E=-5.776212D-01  Symmetry=a1

 Vector    4  Occ=2.000000D+00  E=-4.383110D-01  Symmetry=e

 Vector    5  Occ=2.000000D+00  E=-4.383110D-01  Symmetry=e

 Vector    6  Occ=0.000000D+00  E= 5.366647D-02  Symmetry=a1

 Vector    7  Occ=0.000000D+00  E= 1.797138D-01  Symmetry=a1

 Vector    8  Occ=0.000000D+00  E= 1.925558D-01  Symmetry=e

 Vector    9  Occ=0.000000D+00  E= 1.925558D-01  Symmetry=e

 Vector   10  Occ=0.000000D+00  E= 2.287669D-01  Symmetry=a1

 Vector   11  Occ=0.000000D+00  E= 9.588266D-01  Symmetry=a1

 Vector   12  Occ=0.000000D+00  E= 1.459314D+00  Symmetry=e

 Vector   13  Occ=0.000000D+00  E= 1.459314D+00  Symmetry=e

 Vector   14  Occ=0.000000D+00  E= 1.500090D+00  Symmetry=a1

 Vector   15  Occ=0.000000D+00  E= 1.594047D+00  Symmetry=a1

     Multipole analysis of the density
     ---------------------------------

     L   x y z        total         alpha         beta         nuclear
     -   - - -        -----         -----         ----         -------
     0   0 0 0      0.000000     -5.000000     -5.000000     10.000000

     1   1 0 0      0.000000      0.000000      0.000000      0.000000
     1   0 1 0      0.000000      0.000000      0.000000      0.000000
     1   0 0 1     -0.815544     -0.220437     -0.220437     -0.374670

     2   2 0 0     -4.368312     -2.184156     -2.184156      0.000000
     2   1 1 0      0.000000      0.000000      0.000000      0.000000
     2   1 0 1      0.000000      0.000000      0.000000      0.000000
     2   0 2 0     -4.368312     -2.184156     -2.184156      0.000000
     2   0 1 1      0.000000      0.000000      0.000000      0.000000

         Total DFT energy =   -100.413261559477
@    3    -100.41326156 -7.1D-08  0.00001  0.00001  0.00015  0.00025      6.4
@    3    -100.41326156 -7.1D-08  0.00001  0.00001  0.00015  0.00025      6.4

 Output coordinates in angstroms (scale by  1.889725989 to convert to a.u.)

  No.       Tag          Charge          X              Y              Z
 ---- ---------------- ---------- -------------- -------------- --------------
    1 F                    9.0000     0.00000000     0.00000000     0.07312366
    2 H                    1.0000     0.00000000     0.00000000    -0.85637966

 Total times  cpu:        1.9s     wall:        6.4s
