 Output coordinates in angstroms (scale by  1.889725989 to convert to a.u.)

  No.       Tag          Charge          X              Y              Z
 ---- ---------------- ---------- -------------- -------------- --------------
    1 C                    6.0000    -2.78740000     1.00930000     0.03500000
    2 C                    6.0000    -3.37650000    -0.26050000     0.04900000
    3 C                    6.0000    -2.55600000    -1.39830000     0.03010000
    4 C                    6.0000    -1.14940000    -1.30680000    -0.00980000
    5 C                    6.0000    -0.52930000    -0.00610000    -0.02200000
    6 C                    6.0000    -1.38970000     1.12470000     0.01190000
    7 O                    8.0000    -0.58170000    -2.56950000    -0.07910000
    8 C                    6.0000     0.80560000    -2.82550000    -0.03850000
    9 C                    6.0000     0.99190000     0.21190000    -0.13240000
   10 C                    6.0000     1.67520000     1.49830000     0.39960000
   11 N                    7.0000     3.10630000     1.28490000     0.21750000
   12 C                    6.0000     1.34930000     2.83040000    -0.30120000
   13 H                    1.0000    -3.40840000     1.89290000     0.04190000
   14 H                    1.0000    -4.45190000    -0.35650000     0.07420000
   15 H                    1.0000    -2.99840000    -2.38340000     0.04620000
   16 H                    1.0000    -0.92830000     2.10110000     0.01960000
   17 H                    1.0000     0.97970000    -3.89910000    -0.11060000
   18 H                    1.0000     1.29310000    -2.32200000    -0.87330000
   19 H                    1.0000     1.21690000    -2.45350000     0.89990000
   20 H                    1.0000     1.51300000    -0.58110000     0.40380000
   21 H                    1.0000     1.28660000     0.19490000    -1.18170000
   22 H                    1.0000     1.44990000     1.61840000     1.45930000
   23 H                    1.0000     3.61250000     2.09420000     0.54760000
   24 H                    1.0000     3.39510000     0.47110000     0.74130000
   25 H                    1.0000     1.89990000     3.63880000     0.17990000
   26 H                    1.0000     1.63750000     2.76940000    -1.35060000
   27 H                    1.0000     0.27960000     3.02700000    -0.22950000

         Total DFT energy =     -520.051387031316

                       DFT Final Molecular Orbital Analysis
                       ------------------------------------

 Vector   12  Occ=2.000000D+00  E=-1.017317D+01

 Vector   13  Occ=2.000000D+00  E=-1.049326D+00

 Vector   14  Occ=2.000000D+00  E=-8.912179D-01

 Vector   15  Occ=2.000000D+00  E=-8.374244D-01

 Vector   16  Occ=2.000000D+00  E=-7.685775D-01

 Vector   17  Occ=2.000000D+00  E=-7.494487D-01

 Vector   18  Occ=2.000000D+00  E=-7.236692D-01

 Vector   19  Occ=2.000000D+00  E=-6.995806D-01

 Vector   20  Occ=2.000000D+00  E=-6.694666D-01

 Vector   21  Occ=2.000000D+00  E=-5.990565D-01

 Vector   22  Occ=2.000000D+00  E=-5.845127D-01

 Vector   23  Occ=2.000000D+00  E=-5.652617D-01

 Vector   24  Occ=2.000000D+00  E=-5.169668D-01

 Vector   25  Occ=2.000000D+00  E=-4.922484D-01

 Vector   26  Occ=2.000000D+00  E=-4.813509D-01

 Vector   27  Occ=2.000000D+00  E=-4.763616D-01

 Vector   28  Occ=2.000000D+00  E=-4.646074D-01

 Vector   29  Occ=2.000000D+00  E=-4.600581D-01

 Vector   30  Occ=2.000000D+00  E=-4.405555D-01

 Vector   31  Occ=2.000000D+00  E=-4.251167D-01

 Vector   32  Occ=2.000000D+00  E=-4.130829D-01

 Vector   33  Occ=2.000000D+00  E=-4.001328D-01

 Vector   34  Occ=2.000000D+00  E=-3.889784D-01

 Vector   35  Occ=2.000000D+00  E=-3.734769D-01

 Vector   36  Occ=2.000000D+00  E=-3.658831D-01

 Vector   37  Occ=2.000000D+00  E=-3.524144D-01

 Vector   38  Occ=2.000000D+00  E=-3.468019D-01

 Vector   39  Occ=2.000000D+00  E=-3.426221D-01

 Vector   40  Occ=2.000000D+00  E=-3.260756D-01

 Vector   41  Occ=2.000000D+00  E=-3.086002D-01

 Vector   42  Occ=2.000000D+00  E=-3.032827D-01

 Vector   43  Occ=2.000000D+00  E=-2.350262D-01

 Vector   44  Occ=2.000000D+00  E=-2.323169D-01

 Vector   45  Occ=2.000000D+00  E=-2.073910D-01

 Vector   46  Occ=0.000000D+00  E= 4.778831D-03

 Vector   47  Occ=0.000000D+00  E= 1.288662D-02

 Vector   48  Occ=0.000000D+00  E= 7.253521D-02

 Vector   49  Occ=0.000000D+00  E= 9.296738D-02

 Vector   50  Occ=0.000000D+00  E= 1.076509D-01

 Vector   51  Occ=0.000000D+00  E= 1.192373D-01

 Vector   52  Occ=0.000000D+00  E= 1.331627D-01

 Vector   53  Occ=0.000000D+00  E= 1.366456D-01

 Vector   54  Occ=0.000000D+00  E= 1.401972D-01

 Vector   55  Occ=0.000000D+00  E= 1.493359D-01

 Vector   56  Occ=0.000000D+00  E= 1.609609D-01

 Vector   57  Occ=0.000000D+00  E= 1.677470D-01

 Vector   58  Occ=0.000000D+00  E= 1.773569D-01

 Vector   59  Occ=0.000000D+00  E= 1.804026D-01

 Vector   60  Occ=0.000000D+00  E= 1.830103D-01

 Vector   61  Occ=0.000000D+00  E= 1.906825D-01

 Vector   62  Occ=0.000000D+00  E= 1.960733D-01

 Vector   63  Occ=0.000000D+00  E= 2.220061D-01

 Vector   64  Occ=0.000000D+00  E= 2.366081D-01

 Vector   65  Occ=0.000000D+00  E= 2.373913D-01

 Vector   66  Occ=0.000000D+00  E= 2.539204D-01

 Vector   67  Occ=0.000000D+00  E= 2.578913D-01

 Vector   68  Occ=0.000000D+00  E= 2.823991D-01

 Vector   69  Occ=0.000000D+00  E= 3.102960D-01

 Vector   70  Occ=0.000000D+00  E= 3.292952D-01

 Vector   71  Occ=0.000000D+00  E= 3.524445D-01

 Vector   72  Occ=0.000000D+00  E= 3.684339D-01

 Vector   73  Occ=0.000000D+00  E= 3.803329D-01

 Vector   74  Occ=0.000000D+00  E= 4.717679D-01

 Vector   75  Occ=0.000000D+00  E= 4.902010D-01

 Vector   76  Occ=0.000000D+00  E= 5.151770D-01

     Multipole analysis of the density
     ---------------------------------

     L   x y z        total         alpha         beta         nuclear
     -   - - -        -----         -----         ----         -------
     0   0 0 0     -0.000000    -45.000000    -45.000000     90.000000

     1   1 0 0      0.646629     17.265181     17.265181    -33.883732
     1   0 1 0      0.133956      0.525331      0.525331     -0.916706
     1   0 0 1      0.471645     -1.359012     -1.359012      3.189668

     2   2 0 0    -51.041206   -678.346438   -678.346438   1305.651669
     2   1 1 0     -2.023323   -159.335175   -159.335175    316.647026
     2   1 0 1      3.348543    -10.279838    -10.279838     23.908218
     2   0 2 0    -50.509313   -539.959867   -539.959867   1029.410420
     2   0 1 1      0.857295     -3.913807     -3.913807      8.684910

 Total times  cpu:      395.8s     wall:      414.5s
