============================== echo of input deck ==============================
start geom_zmatrix
echo
  geometry autosym units angstrom noautoz print
         zmatrix
            O
            H    1 r2
            H    1 r2    2 a3
            O    1 r3    2 a4    3 a4 -1
            H    4 r2    1 a4    2 d1
            H    4 r2    1 a4    3 d1
            variables
            r2 0.962
            r3 2.000000
            a3 105.1
            a4 127.45
            d1 90.000000
         end
        end
basis
* library 6-31G*
end
print low
task dft
================================================================================

 Output coordinates in angstroms (scale by  1.889725989 to convert to a.u.)

  No.       Tag          Charge          X              Y              Z
 ---- ---------------- ---------- -------------- -------------- --------------
    1 O                    8.0000     0.00000000     0.00000000     1.00000000
    2 H                    1.0000    -0.54002924     0.54002924     1.58496225
    3 H                    1.0000     0.54002924    -0.54002924     1.58496225
    4 O                    8.0000     0.00000000     0.00000000    -1.00000000
    5 H                    1.0000     0.54002924     0.54002924    -1.58496225
    6 H                    1.0000    -0.54002924    -0.54002924    -1.58496225

         Total DFT energy =     -151.654032043400
 Total times  cpu:        0.3s     wall:        0.4s
