============================== echo of input deck ==============================
echo

start grad_ozone

#
# Ozone --- check C2V symmetry for all analytic gradient methods
#           SCF RHF/ROHF/UHF
#           MP2 RHF/UHF
#

geometry units au noprint  # 3-21g RHF singlet optimized geometry
  symmetry c2v
  O       0.000000   0.000000  -0.769844
  O       0.000000   1.961067   0.384922
end

basis noprint
  O library 6-31g*
end

title "case s7: Ozone --- RHF SCF energy without symmetry"
scf; print low; sym off; adapt off; end
task scf

title "case s1: Ozone --- RHF SCF energy with symmetry"
scf; sym on; adapt on; end
task scf

title "case s5: Ozone --- RHF SCF analytic gradients with symmetry"
task scf gradient

title "case s6: Ozone --- RHF SCF numerical gradients with symmetry"
scf; print none; end
task scf gradient numerical

title "case m1: Ozone --- Semi-direct MP2 energy with symmetry"
task mp2

title "case m2: Ozone --- Direct MP2 energy with symmetry"
task direct_mp2

title "case m3: Ozone --- Semi-direct analytic MP2 gradient with symmetry"
task mp2 gradient

title "case m4: Ozone --- Semi-direct numerical MP2 gradient with symmetry"
mp2; print none; end
task mp2 gradient numerical

title "case s11: Ozone --- ROHF triplet SCF energy without symmetry"
scf; print low; triplet; sym off; adapt off; end
task scf

title "case s8: Ozone --- ROHF triplet SCF energy with symmetry"
scf; sym on; adapt on; end
task scf

title "case s9: Ozone --- ROHF triplet SCF analytic gradients with symmetry"
task scf gradient

title "case s10: Ozone --- ROHF triplet SCF numerical gradients with symmetry"
scf; print none; end
task scf gradient numerical

title "case s16: Ozone --- UHF triplet SCF energy without symmetry"
scf; print low; uhf; sym off; adapt off; end
task scf

title "case s12: Ozone --- UHF triplet SCF energy with symmetry"
scf; sym on; adapt on; end
task scf

title "case s14: Ozone --- UHF triplet SCF analytic gradients with symmetry"
task scf gradient

title "case s15: Ozone --- UHF triplet SCF numerical gradients with symmetry"
scf; print none; end
task scf gradient numerical

title "case m5: Ozone --- Semi-direct analytic UMP2 gradient with symmetry"
mp2; print default; end
task mp2 gradient

title "case m6: Ozone --- Semi-direct numerical UMP2 gradient with symmetry"
mp2; print none; end
task mp2 gradient numerical

================================================================================

         Total SCF energy =   -224.261436389902
         Total SCF energy =   -224.261436419304
         Total SCF energy =   -224.261436419304
          Total MP2 energy          -224.856607081476
          Total MP2 energy          -224.856607081466
          Total MP2 energy          -224.856607081476
         Total SCF energy =   -224.282144711150
         Total SCF energy =   -224.282144708231
         Total SCF energy =   -224.282144708231
         Total SCF energy =   -224.293317730063
         Total SCF energy =   -224.293317731960
         Total SCF energy =   -224.293317731960
          Total MP2 energy          -224.744692305794
 Total times  cpu:       11.8s     wall:       15.2s
