============================== echo of input deck ==============================
echo
start h2_bnl

geometry units angstrom
H        0.0000000000      0.0000000000      0.38707500000
H        0.0000000000      0.0000000000     -0.38707500000
end

basis spherical
 * library "cc-pVTZ"
end

basis "cd basis"
H  library "DGauss A2 DFT Coulomb Fitting"
end

set int:cando_txs f

dft
 xc xbnl07 0.90 lyp 1.00 hfexch 1.00
 cam 0.5 cam_alpha 0.0 cam_beta 1.0
end

task dft energy
================================================================================

 Output coordinates in angstroms (scale by  1.889725989 to convert to a.u.)

  No.       Tag          Charge          X              Y              Z
 ---- ---------------- ---------- -------------- -------------- --------------
    1 H                    1.0000     0.00000000     0.00000000     0.38707500
    2 H                    1.0000     0.00000000     0.00000000    -0.38707500

         Total DFT energy =       -1.130809207021

                       DFT Final Molecular Orbital Analysis
                       ------------------------------------

 Vector    1  Occ=2.000000D+00  E=-5.523620D-01  Symmetry=a1g

 Vector    2  Occ=0.000000D+00  E= 1.370046D-01  Symmetry=a2u

 Vector    3  Occ=0.000000D+00  E= 2.865487D-01  Symmetry=a1g

 Vector    4  Occ=0.000000D+00  E= 5.857176D-01  Symmetry=a2u

 Vector    5  Occ=0.000000D+00  E= 6.362893D-01  Symmetry=eu

 Vector    6  Occ=0.000000D+00  E= 6.362893D-01  Symmetry=eu

 Vector    7  Occ=0.000000D+00  E= 1.034719D+00  Symmetry=a1g

 Vector    8  Occ=0.000000D+00  E= 1.060042D+00  Symmetry=eg

 Vector    9  Occ=0.000000D+00  E= 1.060042D+00  Symmetry=eg

 Vector   10  Occ=0.000000D+00  E= 1.472614D+00  Symmetry=a2u

 Vector   11  Occ=0.000000D+00  E= 2.224152D+00  Symmetry=a2u

     Multipole analysis of the density
     ---------------------------------

     L   x y z        total         alpha         beta         nuclear
     -   - - -        -----         -----         ----         -------
     0   0 0 0      0.000000     -1.000000     -1.000000      2.000000

     1   1 0 0      0.000000      0.000000      0.000000      0.000000
     1   0 1 0      0.000000      0.000000      0.000000      0.000000
     1   0 0 1      0.000000      0.000000      0.000000      0.000000

     2   2 0 0     -1.709063     -0.854532     -0.854532      0.000000
     2   1 1 0      0.000000      0.000000      0.000000      0.000000
     2   1 0 1      0.000000      0.000000      0.000000      0.000000
     2   0 2 0     -1.709063     -0.854532     -0.854532      0.000000
     2   0 1 1      0.000000      0.000000      0.000000      0.000000

 Total times  cpu:        0.1s     wall:        0.3s
