============================== echo of input deck ==============================
echo

title "H2 MP2 gradient at this geometry exposed bug in shell pair ordering"

start h2o

geometry units au
  H      0.00000000   -1.43042809   -1.10715266
  H      0.00000000    1.93042809   -1.60715266
end

basis
  H library 6-31g
  O library 6-31g
end

set tng:fivept t
set tng:delta 0.03

mp2; print backtenergy; end

task mp2 gradient

mp2; print none; end

task mp2 gradient numerical

================================================================================

 Output coordinates in a.u. (scale by  1.000000000 to convert to a.u.)

  No.       Tag          Charge          X              Y              Z
 ---- ---------------- ---------- -------------- -------------- --------------
    1 H                    1.0000     0.00000000     0.00000000    -1.69892277
    2 H                    1.0000     0.00000000     0.00000000     1.69892277

         Total SCF energy =     -0.946358547943

 Vector    1  Occ=2.000000D+00  E=-3.995809D-01  Symmetry=a1g

 Vector    2  Occ=0.000000D+00  E= 3.428911D-03  Symmetry=a2u

 Vector    3  Occ=0.000000D+00  E= 1.015587D+00  Symmetry=a2u

 Vector    4  Occ=0.000000D+00  E= 1.033669D+00  Symmetry=a1g

       Multipole analysis of the density wrt the origin
       ------------------------------------------------

     L   x y z        total         open         nuclear
     -   - - -        -----         ----         -------
     0   0 0 0      0.000000      0.000000      2.000000

     1   1 0 0      0.000000      0.000000      0.000000
     1   0 1 0      0.000000      0.000000      0.000000
     1   0 0 1      0.000000      0.000000      0.000000

     2   2 0 0     -2.202360      0.000000      0.000000
     2   1 1 0      0.000000      0.000000      0.000000
     2   1 0 1      0.000000      0.000000      0.000000
     2   0 2 0     -2.202360      0.000000      0.000000
     2   0 1 1      0.000000      0.000000      0.000000

          Total MP2 energy            -0.984884273828
 Total times  cpu:        0.4s     wall:        0.9s
