 Output coordinates in angstroms (scale by  1.889725989 to convert to a.u.)

  No.       Tag          Charge          X              Y              Z
 ---- ---------------- ---------- -------------- -------------- --------------
    1 O                    8.0000     0.00000000     0.00000000     0.11726921
    2 H                    1.0000     0.75698224     0.00000000    -0.46907685
    3 H                    1.0000    -0.75698224     0.00000000    -0.46907685

         Total DFT energy =      -76.041408588713

 Vector    1  Occ=2.000000D+00  E=-2.057733D+01  Symmetry=a1

 Vector    2  Occ=2.000000D+00  E=-1.356528D+00  Symmetry=a1

 Vector    3  Occ=2.000000D+00  E=-7.190901D-01  Symmetry=b1

 Vector    4  Occ=2.000000D+00  E=-5.856616D-01  Symmetry=a1

 Vector    5  Occ=2.000000D+00  E=-5.094259D-01  Symmetry=b2

 Vector    6  Occ=0.000000D+00  E= 3.542992D-02  Symmetry=a1

 Vector    7  Occ=0.000000D+00  E= 5.792856D-02  Symmetry=b1

 Vector    8  Occ=0.000000D+00  E= 1.739757D-01  Symmetry=a1

 Vector    9  Occ=0.000000D+00  E= 1.966933D-01  Symmetry=b2

 Vector   10  Occ=0.000000D+00  E= 2.226393D-01  Symmetry=a1

 Vector   11  Occ=0.000000D+00  E= 2.314512D-01  Symmetry=b1

 Vector   12  Occ=0.000000D+00  E= 2.907118D-01  Symmetry=b1

 Vector   13  Occ=0.000000D+00  E= 3.314772D-01  Symmetry=a1

 Vector   14  Occ=0.000000D+00  E= 3.858021D-01  Symmetry=a2

 Vector   15  Occ=0.000000D+00  E= 4.040023D-01  Symmetry=a1

 Vector   16  Occ=0.000000D+00  E= 4.337371D-01  Symmetry=b2

 Vector   17  Occ=0.000000D+00  E= 5.392038D-01  Symmetry=b1

         Total DFT energy =      -76.439299459453

                       DFT Final Molecular Orbital Analysis
                       ------------------------------------

 Vector    1  Occ=2.000000D+00  E=-2.057733D+01  Symmetry=a1

 Vector    2  Occ=2.000000D+00  E=-1.356528D+00  Symmetry=a1

 Vector    3  Occ=2.000000D+00  E=-7.190901D-01  Symmetry=b1

 Vector    4  Occ=2.000000D+00  E=-5.856616D-01  Symmetry=a1

 Vector    5  Occ=2.000000D+00  E=-5.094259D-01  Symmetry=b2

 Vector    6  Occ=0.000000D+00  E= 3.542992D-02  Symmetry=a1

 Vector    7  Occ=0.000000D+00  E= 5.792856D-02  Symmetry=b1

 Vector    8  Occ=0.000000D+00  E= 1.739757D-01  Symmetry=a1

 Vector    9  Occ=0.000000D+00  E= 1.966933D-01  Symmetry=b2

 Vector   10  Occ=0.000000D+00  E= 2.226393D-01  Symmetry=a1

 Vector   11  Occ=0.000000D+00  E= 2.314512D-01  Symmetry=b1

 Vector   12  Occ=0.000000D+00  E= 2.907118D-01  Symmetry=b1

 Vector   13  Occ=0.000000D+00  E= 3.314772D-01  Symmetry=a1

 Vector   14  Occ=0.000000D+00  E= 3.858021D-01  Symmetry=a2

 Vector   15  Occ=0.000000D+00  E= 4.040023D-01  Symmetry=a1

 Vector   16  Occ=0.000000D+00  E= 4.337371D-01  Symmetry=b2

 Vector   17  Occ=0.000000D+00  E= 5.392038D-01  Symmetry=b1

     Multipole analysis of the density
     ---------------------------------

     L   x y z        total         alpha         beta         nuclear
     -   - - -        -----         -----         ----         -------
     0   0 0 0      0.000000     -5.000000     -5.000000     10.000000

     1   1 0 0      0.000000      0.000000      0.000000      0.000000
     1   0 1 0      0.000000      0.000000      0.000000      0.000000
     1   0 0 1     -0.786648     -0.393324     -0.393324      0.000000

     2   2 0 0     -3.181818     -3.637208     -3.637208      4.092598
     2   1 1 0      0.000000      0.000000      0.000000      0.000000
     2   1 0 1      0.000000      0.000000      0.000000      0.000000
     2   0 2 0     -5.642919     -2.821460     -2.821460      0.000000
     2   0 1 1      0.000000      0.000000      0.000000      0.000000

 Total times  cpu:        0.3s     wall:        0.5s
