============================== echo of input deck ==============================
echo
start h2o-response

memory global 40 mb stack 23 mb heap 5 mb

geometry units au
 O 0       0        0
 H 0       1.430   -1.107
 H 0      -1.430   -1.107
end

basis
  O library 6-31g*
  H library 6-31g*
end

dft
 xc b3lyp
end

set cphf:thresh 1.0d-6
set cphf:acc 1.0d-16
set cphf:maxiter 60
property
 dipole
 aoresponse  1 .0911267060
 velocity
 damping 0.007
end

task dft property
================================================================================

 Output coordinates in a.u. (scale by  1.000000000 to convert to a.u.)

  No.       Tag          Charge          X              Y              Z
 ---- ---------------- ---------- -------------- -------------- --------------
    1 O                    8.0000     0.00000000     0.00000000     0.22140000
    2 H                    1.0000    -1.43000000     0.00000000    -0.88560000
    3 H                    1.0000     1.43000000     0.00000000    -0.88560000

         Total DFT energy =      -76.408697513613

                       DFT Final Molecular Orbital Analysis
                       ------------------------------------

 Vector    1  Occ=2.000000D+00  E=-1.913569D+01

 Vector    2  Occ=2.000000D+00  E=-1.002246D+00

 Vector    3  Occ=2.000000D+00  E=-5.230559D-01

 Vector    4  Occ=2.000000D+00  E=-3.712455D-01

 Vector    5  Occ=2.000000D+00  E=-2.917579D-01

 Vector    6  Occ=0.000000D+00  E= 6.595808D-02

 Vector    7  Occ=0.000000D+00  E= 1.525120D-01

 Vector    8  Occ=0.000000D+00  E= 7.810388D-01

 Vector    9  Occ=0.000000D+00  E= 8.699788D-01

 Vector   10  Occ=0.000000D+00  E= 8.909123D-01

 Vector   11  Occ=0.000000D+00  E= 8.958849D-01

 Vector   12  Occ=0.000000D+00  E= 1.069428D+00

 Vector   13  Occ=0.000000D+00  E= 1.192265D+00

 Vector   14  Occ=0.000000D+00  E= 1.729016D+00

 Vector   15  Occ=0.000000D+00  E= 1.743086D+00

     Multipole analysis of the density
     ---------------------------------

     L   x y z        total         alpha         beta         nuclear
     -   - - -        -----         -----         ----         -------
     0   0 0 0      0.000000     -5.000000     -5.000000     10.000000

     1   1 0 0      0.000000      0.000000      0.000000      0.000000
     1   0 1 0      0.000000      0.000000      0.000000      0.000000
     1   0 0 1     -0.817656     -0.408828     -0.408828      0.000000

     2   2 0 0     -3.170466     -3.630133     -3.630133      4.089800
     2   1 1 0      0.000000      0.000000      0.000000      0.000000
     2   1 0 1      0.000000      0.000000      0.000000      0.000000
     2   0 2 0     -5.338444     -2.669222     -2.669222      0.000000
     2   0 1 1      0.000000      0.000000      0.000000      0.000000

 Total times  cpu:        6.2s     wall:        6.5s
