 Output coordinates in angstroms (scale by  1.889725989 to convert to a.u.)

  No.       Tag          Charge          X              Y              Z
 ---- ---------------- ---------- -------------- -------------- --------------
    1 O                    8.0000     0.00000000     0.00000000     0.11726921
    2 H                    1.0000     0.75698224     0.00000000    -0.46907685
    3 H                    1.0000    -0.75698224     0.00000000    -0.46907685

         Total DFT energy =      -75.957527756027

 Vector    1  Occ=2.000000D+00  E=-1.959713D+01  Symmetry=a1

 Vector    2  Occ=2.000000D+00  E=-1.140738D+00  Symmetry=a1

 Vector    3  Occ=2.000000D+00  E=-6.028862D-01  Symmetry=b1

 Vector    4  Occ=2.000000D+00  E=-4.641565D-01  Symmetry=a1

 Vector    5  Occ=2.000000D+00  E=-3.875739D-01  Symmetry=b2

 Vector    6  Occ=0.000000D+00  E= 8.978794D-03  Symmetry=a1

 Vector    7  Occ=0.000000D+00  E= 4.429467D-02  Symmetry=b1

 Vector    8  Occ=0.000000D+00  E= 1.357544D-01  Symmetry=a1

 Vector    9  Occ=0.000000D+00  E= 1.573997D-01  Symmetry=b2

 Vector   10  Occ=0.000000D+00  E= 1.724118D-01  Symmetry=a1

 Vector   11  Occ=0.000000D+00  E= 1.939299D-01  Symmetry=b1

 Vector   12  Occ=0.000000D+00  E= 2.238825D-01  Symmetry=b1

 Vector   13  Occ=0.000000D+00  E= 2.714581D-01  Symmetry=a1

 Vector   14  Occ=0.000000D+00  E= 3.246178D-01  Symmetry=a2

 Vector   15  Occ=0.000000D+00  E= 3.390928D-01  Symmetry=a1

 Vector   16  Occ=0.000000D+00  E= 3.681701D-01  Symmetry=b2

 Vector   17  Occ=0.000000D+00  E= 4.844292D-01  Symmetry=b1

 Vector   18  Occ=0.000000D+00  E= 5.638837D-01  Symmetry=a1

         Total DFT energy =      -76.021780030331

                       DFT Final Molecular Orbital Analysis
                       ------------------------------------

 Vector    1  Occ=2.000000D+00  E=-1.968473D+01  Symmetry=a1

 Vector    2  Occ=2.000000D+00  E=-1.229853D+00  Symmetry=a1

 Vector    3  Occ=2.000000D+00  E=-6.819485D-01  Symmetry=b1

 Vector    4  Occ=2.000000D+00  E=-5.431976D-01  Symmetry=a1

 Vector    5  Occ=2.000000D+00  E=-4.670106D-01  Symmetry=b2

 Vector    6  Occ=0.000000D+00  E= 2.651054D-02  Symmetry=a1

 Vector    7  Occ=0.000000D+00  E= 5.339647D-02  Symmetry=b1

 Vector    8  Occ=0.000000D+00  E= 1.596420D-01  Symmetry=a1

 Vector    9  Occ=0.000000D+00  E= 1.835784D-01  Symmetry=b2

 Vector   10  Occ=0.000000D+00  E= 2.022945D-01  Symmetry=a1

 Vector   11  Occ=0.000000D+00  E= 2.179171D-01  Symmetry=b1

 Vector   12  Occ=0.000000D+00  E= 2.614976D-01  Symmetry=b1

 Vector   13  Occ=0.000000D+00  E= 3.078038D-01  Symmetry=a1

 Vector   14  Occ=0.000000D+00  E= 3.623055D-01  Symmetry=a2

 Vector   15  Occ=0.000000D+00  E= 3.773645D-01  Symmetry=a1

 Vector   16  Occ=0.000000D+00  E= 4.076282D-01  Symmetry=b2

 Vector   17  Occ=0.000000D+00  E= 5.180447D-01  Symmetry=b1

     Multipole analysis of the density
     ---------------------------------

     L   x y z        total         alpha         beta         nuclear
     -   - - -        -----         -----         ----         -------
     0   0 0 0      0.000000     -5.000000     -5.000000     10.000000

     1   1 0 0      0.000000      0.000000      0.000000      0.000000
     1   0 1 0      0.000000      0.000000      0.000000      0.000000
     1   0 0 1     -0.772229     -0.386115     -0.386115      0.000000

     2   2 0 0     -3.294559     -3.693578     -3.693578      4.092598
     2   1 1 0      0.000000      0.000000      0.000000      0.000000
     2   1 0 1      0.000000      0.000000      0.000000      0.000000
     2   0 2 0     -5.761668     -2.880834     -2.880834      0.000000
     2   0 1 1      0.000000      0.000000      0.000000      0.000000

 Total times  cpu:        0.8s     wall:        1.0s
