 Output coordinates in angstroms (scale by  1.889725989 to convert to a.u.)

  No.       Tag          Charge          X              Y              Z
 ---- ---------------- ---------- -------------- -------------- --------------
    1 O                    8.0000     0.00000000     0.00000000     0.11726921
    2 H                    1.0000     0.75698224     0.00000000    -0.46907685
    3 H                    1.0000    -0.75698224     0.00000000    -0.46907685

         Total DFT energy =      -76.416437159205

 Vector    1  Occ=2.000000D+00  E=-1.923171D+01  Symmetry=a1

 Vector    2  Occ=2.000000D+00  E=-1.103200D+00  Symmetry=a1

 Vector    3  Occ=2.000000D+00  E=-6.089556D-01  Symmetry=b1

 Vector    4  Occ=2.000000D+00  E=-4.674400D-01  Symmetry=a1

 Vector    5  Occ=2.000000D+00  E=-3.914636D-01  Symmetry=b2

 Vector    6  Occ=0.000000D+00  E= 3.535451D-03  Symmetry=a1

 Vector    7  Occ=0.000000D+00  E= 4.056555D-02  Symmetry=b1

 Vector    8  Occ=0.000000D+00  E= 1.292567D-01  Symmetry=a1

 Vector    9  Occ=0.000000D+00  E= 1.514705D-01  Symmetry=b2

 Vector   10  Occ=0.000000D+00  E= 1.650329D-01  Symmetry=a1

 Vector   11  Occ=0.000000D+00  E= 1.856770D-01  Symmetry=b1

 Vector   12  Occ=0.000000D+00  E= 2.153652D-01  Symmetry=b1

 Vector   13  Occ=0.000000D+00  E= 2.634543D-01  Symmetry=a1

 Vector   14  Occ=0.000000D+00  E= 3.169157D-01  Symmetry=a2

 Vector   15  Occ=0.000000D+00  E= 3.311903D-01  Symmetry=a1

 Vector   16  Occ=0.000000D+00  E= 3.608310D-01  Symmetry=b2

 Vector   17  Occ=0.000000D+00  E= 4.758345D-01  Symmetry=b1

 Vector   18  Occ=0.000000D+00  E= 5.486542D-01  Symmetry=a1

         Total DFT energy =      -76.416437163204

                       DFT Final Molecular Orbital Analysis
                       ------------------------------------

 Vector    1  Occ=2.000000D+00  E=-1.923171D+01

 Vector    2  Occ=2.000000D+00  E=-1.103200D+00

 Vector    3  Occ=2.000000D+00  E=-6.089562D-01

 Vector    4  Occ=2.000000D+00  E=-4.674409D-01

 Vector    5  Occ=2.000000D+00  E=-3.914637D-01

 Vector    6  Occ=0.000000D+00  E= 3.535354D-03

 Vector    7  Occ=0.000000D+00  E= 4.056574D-02

 Vector    8  Occ=0.000000D+00  E= 1.292565D-01

 Vector    9  Occ=0.000000D+00  E= 1.514707D-01

 Vector   10  Occ=0.000000D+00  E= 1.650333D-01

 Vector   11  Occ=0.000000D+00  E= 1.856771D-01

 Vector   12  Occ=0.000000D+00  E= 2.153651D-01

 Vector   13  Occ=0.000000D+00  E= 2.634541D-01

 Vector   14  Occ=0.000000D+00  E= 3.169152D-01

 Vector   15  Occ=0.000000D+00  E= 3.311899D-01

 Vector   16  Occ=0.000000D+00  E= 3.608306D-01

 Vector   17  Occ=0.000000D+00  E= 4.758342D-01

 Vector   18  Occ=0.000000D+00  E= 5.486539D-01

     Multipole analysis of the density
     ---------------------------------

     L   x y z        total         alpha         beta         nuclear
     -   - - -        -----         -----         ----         -------
     0   0 0 0      0.000000     -5.000000     -5.000000     10.000000

     1   1 0 0      0.000000      0.000000      0.000000      0.000000
     1   0 1 0      0.000000      0.000000      0.000000      0.000000
     1   0 0 1     -0.744892     -0.372446     -0.372446      0.000000

     2   2 0 0     -3.378707     -3.735652     -3.735652      4.092598
     2   1 1 0      0.000000      0.000000      0.000000      0.000000
     2   1 0 1      0.000000      0.000000      0.000000      0.000000
     2   0 2 0     -5.816398     -2.908199     -2.908199      0.000000
     2   0 1 1      0.000000      0.000000      0.000000      0.000000

 Total times  cpu:        5.0s     wall:        5.2s
