 Output coordinates in angstroms (scale by  1.889725989 to convert to a.u.)

  No.       Tag          Charge          X              Y              Z
 ---- ---------------- ---------- -------------- -------------- --------------
    1 O                    8.0000     0.00000000     0.00000000     0.11726921
    2 H                    1.0000     0.75698224     0.00000000    -0.46907685
    3 H                    1.0000    -0.75698224     0.00000000    -0.46907685

         Total DFT energy =      -76.246746020040

                       DFT Final Molecular Orbital Analysis
                       ------------------------------------

 Vector    1  Occ=2.000000D+00  E=-1.892918D+01  Symmetry=a1

 Vector    2  Occ=2.000000D+00  E=-1.102985D+00  Symmetry=a1

 Vector    3  Occ=2.000000D+00  E=-6.329556D-01  Symmetry=b1

 Vector    4  Occ=2.000000D+00  E=-4.903039D-01  Symmetry=a1

 Vector    5  Occ=2.000000D+00  E=-4.143323D-01  Symmetry=b2

 Vector    6  Occ=0.000000D+00  E= 2.785102D-02  Symmetry=a1

 Vector    7  Occ=0.000000D+00  E= 5.586925D-02  Symmetry=b1

 Vector    8  Occ=0.000000D+00  E= 1.569705D-01  Symmetry=a1

 Vector    9  Occ=0.000000D+00  E= 1.862025D-01  Symmetry=b2

 Vector   10  Occ=0.000000D+00  E= 1.967072D-01  Symmetry=a1

 Vector   11  Occ=0.000000D+00  E= 2.147157D-01  Symmetry=b1

 Vector   12  Occ=0.000000D+00  E= 2.499147D-01  Symmetry=b1

 Vector   13  Occ=0.000000D+00  E= 3.020610D-01  Symmetry=a1

 Vector   14  Occ=0.000000D+00  E= 3.578615D-01  Symmetry=a2

 Vector   15  Occ=0.000000D+00  E= 3.673455D-01  Symmetry=a1

 Vector   16  Occ=0.000000D+00  E= 3.990021D-01  Symmetry=b2

 Vector   17  Occ=0.000000D+00  E= 5.147719D-01  Symmetry=b1

     Multipole analysis of the density
     ---------------------------------

     L   x y z        total         alpha         beta         nuclear
     -   - - -        -----         -----         ----         -------
     0   0 0 0      0.000000     -5.000000     -5.000000     10.000000

     1   1 0 0      0.000000      0.000000      0.000000      0.000000
     1   0 1 0      0.000000      0.000000      0.000000      0.000000
     1   0 0 1     -0.743141     -0.371570     -0.371570      0.000000

     2   2 0 0     -3.391042     -3.741820     -3.741820      4.092598
     2   1 1 0      0.000000      0.000000      0.000000      0.000000
     2   1 0 1      0.000000      0.000000      0.000000      0.000000
     2   0 2 0     -5.862402     -2.931201     -2.931201      0.000000
     2   0 1 1      0.000000      0.000000      0.000000      0.000000

 Total times  cpu:        0.8s     wall:        0.9s
