============================== echo of input deck ==============================
title "h2o ssb-d-dft"

echo
start h2o-ssb-d

memory global 40 mb stack 23 mb heap 5 mb

geometry units au
 O 0       0        0
 H 0       1.430   -1.107
 H 0      -1.430   -1.107
end

basis
  O library 6-31g*
  H library 6-31g*
end

dft
  iterations 99
  CONVERGENCE density 1.0e-6
  CONVERGENCE gradient 1.0e-6
  convergence damp 90 nolevelshifting
  convergence diison 0.01
  TOLERANCES tight
  grid fine
  xc ssb-d
end

task dft energy
================================================================================

 Output coordinates in a.u. (scale by  1.000000000 to convert to a.u.)

  No.       Tag          Charge          X              Y              Z
 ---- ---------------- ---------- -------------- -------------- --------------
    1 O                    8.0000     0.00000000     0.00000000     0.22140000
    2 H                    1.0000    -1.43000000     0.00000000    -0.88560000
    3 H                    1.0000     1.43000000     0.00000000    -0.88560000

         Total DFT energy =      -76.939210036684

                       DFT Final Molecular Orbital Analysis
                       ------------------------------------

 Vector    1  Occ=2.000000D+00  E=-1.893083D+01  Symmetry=a1

 Vector    2  Occ=2.000000D+00  E=-9.407672D-01  Symmetry=a1

 Vector    3  Occ=2.000000D+00  E=-4.791437D-01  Symmetry=b1

 Vector    4  Occ=2.000000D+00  E=-3.255334D-01  Symmetry=a1

 Vector    5  Occ=2.000000D+00  E=-2.378343D-01  Symmetry=b2

 Vector    6  Occ=0.000000D+00  E= 4.032729D-02  Symmetry=a1

 Vector    7  Occ=0.000000D+00  E= 1.255456D-01  Symmetry=b1

 Vector    8  Occ=0.000000D+00  E= 7.199651D-01  Symmetry=b1

 Vector    9  Occ=0.000000D+00  E= 8.056339D-01  Symmetry=a1

 Vector   10  Occ=0.000000D+00  E= 8.486538D-01  Symmetry=a1

 Vector   11  Occ=0.000000D+00  E= 8.562040D-01  Symmetry=b2

 Vector   12  Occ=0.000000D+00  E= 1.030858D+00  Symmetry=b1

 Vector   13  Occ=0.000000D+00  E= 1.150345D+00  Symmetry=a1

 Vector   14  Occ=0.000000D+00  E= 1.637742D+00  Symmetry=a1

 Vector   15  Occ=0.000000D+00  E= 1.653054D+00  Symmetry=a2

     Multipole analysis of the density
     ---------------------------------

     L   x y z        total         alpha         beta         nuclear
     -   - - -        -----         -----         ----         -------
     0   0 0 0      0.000000     -5.000000     -5.000000     10.000000

     1   1 0 0      0.000000      0.000000      0.000000      0.000000
     1   0 1 0      0.000000      0.000000      0.000000      0.000000
     1   0 0 1     -0.777890     -0.388945     -0.388945      0.000000

     2   2 0 0     -3.152793     -3.621297     -3.621297      4.089800
     2   1 1 0      0.000000      0.000000      0.000000      0.000000
     2   1 0 1      0.000000      0.000000      0.000000      0.000000
     2   0 2 0     -5.316024     -2.658012     -2.658012      0.000000
     2   0 1 1      0.000000      0.000000      0.000000      0.000000

 Total times  cpu:        0.3s     wall:        0.4s
