 Output coordinates in angstroms (scale by  1.889725989 to convert to a.u.)

  No.       Tag          Charge          X              Y              Z
 ---- ---------------- ---------- -------------- -------------- --------------
    1 O                    8.0000     0.00000000     0.00000000     0.11726921
    2 H                    1.0000     0.75698224     0.00000000    -0.46907685
    3 H                    1.0000    -0.75698224     0.00000000    -0.46907685

         Total DFT energy =      -76.276023147243

 Vector    1  Occ=2.000000D+00  E=-1.934330D+01  Symmetry=a1

 Vector    2  Occ=2.000000D+00  E=-1.174437D+00  Symmetry=a1

 Vector    3  Occ=2.000000D+00  E=-6.628137D-01  Symmetry=b1

 Vector    4  Occ=2.000000D+00  E=-5.220915D-01  Symmetry=a1

 Vector    5  Occ=2.000000D+00  E=-4.452076D-01  Symmetry=b2

 Vector    6  Occ=0.000000D+00  E= 2.980438D-02  Symmetry=a1

 Vector    7  Occ=0.000000D+00  E= 5.636697D-02  Symmetry=b1

 Vector    8  Occ=0.000000D+00  E= 1.614300D-01  Symmetry=a1

 Vector    9  Occ=0.000000D+00  E= 1.885562D-01  Symmetry=b2

 Vector   10  Occ=0.000000D+00  E= 2.018401D-01  Symmetry=a1

 Vector   11  Occ=0.000000D+00  E= 2.197627D-01  Symmetry=b1

 Vector   12  Occ=0.000000D+00  E= 2.578946D-01  Symmetry=b1

 Vector   13  Occ=0.000000D+00  E= 3.082438D-01  Symmetry=a1

 Vector   14  Occ=0.000000D+00  E= 3.636753D-01  Symmetry=a2

 Vector   15  Occ=0.000000D+00  E= 3.750542D-01  Symmetry=a1

 Vector   16  Occ=0.000000D+00  E= 4.061352D-01  Symmetry=b2

 Vector   17  Occ=0.000000D+00  E= 5.203878D-01  Symmetry=b1

         Total DFT energy =      -76.276023163288

                       DFT Final Molecular Orbital Analysis
                       ------------------------------------

 Vector    1  Occ=2.000000D+00  E=-1.934330D+01

 Vector    2  Occ=2.000000D+00  E=-1.174435D+00

 Vector    3  Occ=2.000000D+00  E=-6.628131D-01

 Vector    4  Occ=2.000000D+00  E=-5.220927D-01

 Vector    5  Occ=2.000000D+00  E=-4.452068D-01

 Vector    6  Occ=0.000000D+00  E= 2.980429D-02

 Vector    7  Occ=0.000000D+00  E= 5.636697D-02

 Vector    8  Occ=0.000000D+00  E= 1.614299D-01

 Vector    9  Occ=0.000000D+00  E= 1.885567D-01

 Vector   10  Occ=0.000000D+00  E= 2.018406D-01

 Vector   11  Occ=0.000000D+00  E= 2.197632D-01

 Vector   12  Occ=0.000000D+00  E= 2.578951D-01

 Vector   13  Occ=0.000000D+00  E= 3.082437D-01

 Vector   14  Occ=0.000000D+00  E= 3.636749D-01

 Vector   15  Occ=0.000000D+00  E= 3.750544D-01

 Vector   16  Occ=0.000000D+00  E= 4.061354D-01

 Vector   17  Occ=0.000000D+00  E= 5.203877D-01

     Multipole analysis of the density
     ---------------------------------

     L   x y z        total         alpha         beta         nuclear
     -   - - -        -----         -----         ----         -------
     0   0 0 0      0.000000     -5.000000     -5.000000     10.000000

     1   1 0 0      0.000000      0.000000      0.000000      0.000000
     1   0 1 0      0.000000      0.000000      0.000000      0.000000
     1   0 0 1     -0.758326     -0.379163     -0.379163      0.000000

     2   2 0 0     -3.296595     -3.694596     -3.694596      4.092598
     2   1 1 0      0.000000      0.000000      0.000000      0.000000
     2   1 0 1      0.000000      0.000000      0.000000      0.000000
     2   0 2 0     -5.767176     -2.883588     -2.883588      0.000000
     2   0 1 1      0.000000      0.000000      0.000000      0.000000

 Total times  cpu:        5.3s     wall:        5.4s
