 Output coordinates in angstroms (scale by  1.889725989 to convert to a.u.)

  No.       Tag          Charge          X              Y              Z
 ---- ---------------- ---------- -------------- -------------- --------------
    1 O                    8.0000     0.00000000     0.00000000     0.11726921
    2 H                    1.0000     0.75698224     0.00000000    -0.46907685
    3 H                    1.0000    -0.75698224     0.00000000    -0.46907685

         Total DFT energy =      -76.416271419054

 Vector    1  Occ=2.000000D+00  E=-1.923253D+01  Symmetry=a1

 Vector    2  Occ=2.000000D+00  E=-1.103974D+00  Symmetry=a1

 Vector    3  Occ=2.000000D+00  E=-6.096250D-01  Symmetry=b1

 Vector    4  Occ=2.000000D+00  E=-4.682979D-01  Symmetry=a1

 Vector    5  Occ=2.000000D+00  E=-3.922863D-01  Symmetry=b2

 Vector    6  Occ=0.000000D+00  E= 3.092169D-03  Symmetry=a1

 Vector    7  Occ=0.000000D+00  E= 4.022090D-02  Symmetry=b1

 Vector    8  Occ=0.000000D+00  E= 1.288998D-01  Symmetry=a1

 Vector    9  Occ=0.000000D+00  E= 1.512374D-01  Symmetry=b2

 Vector   10  Occ=0.000000D+00  E= 1.645266D-01  Symmetry=a1

 Vector   11  Occ=0.000000D+00  E= 1.850822D-01  Symmetry=b1

 Vector   12  Occ=0.000000D+00  E= 2.146403D-01  Symmetry=b1

 Vector   13  Occ=0.000000D+00  E= 2.626929D-01  Symmetry=a1

 Vector   14  Occ=0.000000D+00  E= 3.163960D-01  Symmetry=a2

 Vector   15  Occ=0.000000D+00  E= 3.306017D-01  Symmetry=a1

 Vector   16  Occ=0.000000D+00  E= 3.603059D-01  Symmetry=b2

 Vector   17  Occ=0.000000D+00  E= 4.752099D-01  Symmetry=b1

 Vector   18  Occ=0.000000D+00  E= 5.478236D-01  Symmetry=a1

         Total DFT energy =      -76.416271423031

                       DFT Final Molecular Orbital Analysis
                       ------------------------------------

 Vector    1  Occ=2.000000D+00  E=-1.923253D+01

 Vector    2  Occ=2.000000D+00  E=-1.103974D+00

 Vector    3  Occ=2.000000D+00  E=-6.096255D-01

 Vector    4  Occ=2.000000D+00  E=-4.682987D-01

 Vector    5  Occ=2.000000D+00  E=-3.922862D-01

 Vector    6  Occ=0.000000D+00  E= 3.092079D-03

 Vector    7  Occ=0.000000D+00  E= 4.022111D-02

 Vector    8  Occ=0.000000D+00  E= 1.288997D-01

 Vector    9  Occ=0.000000D+00  E= 1.512377D-01

 Vector   10  Occ=0.000000D+00  E= 1.645270D-01

 Vector   11  Occ=0.000000D+00  E= 1.850823D-01

 Vector   12  Occ=0.000000D+00  E= 2.146402D-01

 Vector   13  Occ=0.000000D+00  E= 2.626927D-01

 Vector   14  Occ=0.000000D+00  E= 3.163955D-01

 Vector   15  Occ=0.000000D+00  E= 3.306013D-01

 Vector   16  Occ=0.000000D+00  E= 3.603055D-01

 Vector   17  Occ=0.000000D+00  E= 4.752096D-01

 Vector   18  Occ=0.000000D+00  E= 5.478233D-01

     Multipole analysis of the density
     ---------------------------------

     L   x y z        total         alpha         beta         nuclear
     -   - - -        -----         -----         ----         -------
     0   0 0 0      0.000000     -5.000000     -5.000000     10.000000

     1   1 0 0      0.000000      0.000000      0.000000      0.000000
     1   0 1 0      0.000000      0.000000      0.000000      0.000000
     1   0 0 1     -0.744447     -0.372223     -0.372223      0.000000

     2   2 0 0     -3.379071     -3.735834     -3.735834      4.092598
     2   1 1 0      0.000000      0.000000      0.000000      0.000000
     2   1 0 1      0.000000      0.000000      0.000000      0.000000
     2   0 2 0     -5.815550     -2.907775     -2.907775      0.000000
     2   0 1 1      0.000000      0.000000      0.000000      0.000000

 Total times  cpu:        5.2s     wall:        5.4s
