============================== echo of input deck ==============================
echo
start h2o

memory global 40 mb stack 23 mb heap 5 mb

basis
  O library 6-31g*
  H library 6-31g*
end

geometry noautoz noautosym nocenter units au
 O                     0.00000000     0.00000000     0.00000000
 H                     0.23701217     0.50006465    -0.66134565
 H                     0.08518191    -0.91769081    -0.30894068
end

####################################
#      TESTING FIXED ATOMS         #
####################################

#we can fix atoms two ways through geometry:actlist
#or through constraint module

set geometry:actlist  3
task dft gradient

unset geometry:actlist
constraints
  fix atom 1:2
end
task dft gradient

#we can also mix both geometry:actlist
#and constraints
#in this particular case only atom 2 will be fixed

set geometry:actlist  1
constraints
  fix atom 1:2
end
task dft gradient

#we can also play with namespaces

constraints one
fix atom 1
end

constraints two
fix atom 2
end

set constraints one
task dft gradient

set constraints two
task dft gradient

#we can clear constraints
constraints one
clear
end

set constraints one
task dft gradient

================================================================================

 Output coordinates in a.u. (scale by  1.000000000 to convert to a.u.)

  No.       Tag          Charge          X              Y              Z
 ---- ---------------- ---------- -------------- -------------- --------------
    1 O                    8.0000     0.00000000     0.00000000     0.00000000
    2 H                    1.0000     0.23701217     0.50006465    -0.66134565
    3 H                    1.0000     0.08518191    -0.91769081    -0.30894068

         Total DFT energy =    -74.004244573371

                       DFT Final Molecular Orbital Analysis
                       ------------------------------------

 Vector    2  Occ=2.000000E+00  E=-1.206596E+00

 Vector    3  Occ=2.000000E+00  E=-6.982976E-01

 Vector    4  Occ=2.000000E+00  E=-3.589877E-01

 Vector    5  Occ=2.000000E+00  E=-2.995743E-01

 Vector    6  Occ=0.000000E+00  E= 1.269991E-01

 Vector    7  Occ=0.000000E+00  E= 2.299027E-01

 Vector    8  Occ=0.000000E+00  E= 7.313379E-01

 Vector    9  Occ=0.000000E+00  E= 7.991543E-01

 Vector   10  Occ=0.000000E+00  E= 9.124385E-01

 Vector   11  Occ=0.000000E+00  E= 1.236467E+00

 Vector   12  Occ=0.000000E+00  E= 1.455496E+00

 Vector   13  Occ=0.000000E+00  E= 1.528397E+00

 Vector   14  Occ=0.000000E+00  E= 1.607686E+00

 Vector   15  Occ=0.000000E+00  E= 1.644635E+00

     Multipole analysis of the density
     ---------------------------------

     L   x y z        total         alpha         beta         nuclear
     -   - - -        -----         -----         ----         -------
     0   0 0 0      0.000000     -5.000000     -5.000000     10.000000

     1   1 0 0      0.183688     -0.069253     -0.069253      0.322194
     1   0 1 0     -0.212219      0.102704      0.102704     -0.417626
     1   0 0 1     -0.551496      0.209395      0.209395     -0.970286

     2   2 0 0     -4.434271     -2.248851     -2.248851      0.063431
     2   1 1 0      0.053150      0.006400      0.006400      0.040351
     2   1 0 1     -0.196437     -0.006687     -0.006687     -0.183063
     2   0 2 0     -3.481469     -2.286845     -2.286845      1.092221
     2   0 1 1     -0.089289     -0.021043     -0.021043     -0.047204

         Total DFT energy =    -74.004244573371
         Total DFT energy =    -74.004244573371
         Total DFT energy =    -74.004244573371
         Total DFT energy =    -74.004244573371
         Total DFT energy =    -74.004244573371
 Total times  cpu:        2.8s     wall:        8.0s
