 Output coordinates in angstroms (scale by  1.889725989 to convert to a.u.)

  No.       Tag          Charge          X              Y              Z
 ---- ---------------- ---------- -------------- -------------- --------------
    1 O                    8.0000     0.00000000     0.11908780     0.00000000
    2 H                    1.0000     0.75983000    -0.47635220     0.00000000
    3 H                    1.0000    -0.75983000    -0.47635020     0.00000000

         Total DFT energy =      -75.218551384767

 Vector    1  Occ=2.000000D+00  E=-1.866226D+01

 Vector    2  Occ=2.000000D+00  E=-1.144984D+00

 Vector    3  Occ=2.000000D+00  E=-6.517707D-01

 Vector    4  Occ=2.000000D+00  E=-5.128488D-01

 Vector    5  Occ=2.000000D+00  E=-4.401845D-01

 Vector    6  Occ=0.000000D+00  E= 1.105887D-01

 Vector    7  Occ=0.000000D+00  E= 1.753992D-01

 Vector    8  Occ=0.000000D+00  E= 4.875538D-01

 Vector    9  Occ=0.000000D+00  E= 5.439160D-01

 Vector   10  Occ=0.000000D+00  E= 6.127494D-01

 Vector   11  Occ=0.000000D+00  E= 7.194697D-01

 Vector   12  Occ=0.000000D+00  E= 7.367177D-01

 Vector   13  Occ=0.000000D+00  E= 7.388083D-01

 Vector   14  Occ=0.000000D+00  E= 8.016778D-01

 Vector   15  Occ=0.000000D+00  E= 8.933690D-01

         Total DFT energy =      -75.218551087483

 Vector    1  Occ=2.000000D+00  E=-1.866226D+01

 Vector    2  Occ=2.000000D+00  E=-1.144985D+00

 Vector    3  Occ=2.000000D+00  E=-6.517716D-01

 Vector    4  Occ=2.000000D+00  E=-5.128502D-01

 Vector    5  Occ=2.000000D+00  E=-4.401858D-01

 Vector    6  Occ=0.000000D+00  E= 1.105883D-01

 Vector    7  Occ=0.000000D+00  E= 1.753989D-01

 Vector    8  Occ=0.000000D+00  E= 4.875535D-01

 Vector    9  Occ=0.000000D+00  E= 5.439155D-01

 Vector   10  Occ=0.000000D+00  E= 6.127500D-01

 Vector   11  Occ=0.000000D+00  E= 7.194693D-01

 Vector   12  Occ=0.000000D+00  E= 7.367169D-01

 Vector   13  Occ=0.000000D+00  E= 7.388084D-01

 Vector   14  Occ=0.000000D+00  E= 8.016775D-01

 Vector   15  Occ=0.000000D+00  E= 8.933689D-01

         Total DFT energy =      -75.218551087488

                       DFT Final Molecular Orbital Analysis
                       ------------------------------------

 Vector    1  Occ=2.000000D+00  E=-1.866226D+01

 Vector    2  Occ=2.000000D+00  E=-1.144985D+00

 Vector    3  Occ=2.000000D+00  E=-6.517717D-01

 Vector    4  Occ=2.000000D+00  E=-5.128503D-01

 Vector    5  Occ=2.000000D+00  E=-4.401859D-01

 Vector    6  Occ=0.000000D+00  E= 1.105883D-01

 Vector    7  Occ=0.000000D+00  E= 1.753989D-01

 Vector    8  Occ=0.000000D+00  E= 4.875535D-01

 Vector    9  Occ=0.000000D+00  E= 5.439155D-01

 Vector   10  Occ=0.000000D+00  E= 6.127500D-01

 Vector   11  Occ=0.000000D+00  E= 7.194693D-01

 Vector   12  Occ=0.000000D+00  E= 7.367169D-01

 Vector   13  Occ=0.000000D+00  E= 7.388083D-01

 Vector   14  Occ=0.000000D+00  E= 8.016775D-01

 Vector   15  Occ=0.000000D+00  E= 8.933689D-01

     Multipole analysis of the density
     ---------------------------------

     L   x y z        total         alpha         beta         nuclear
     -   - - -        -----         -----         ----         -------
     0   0 0 0      0.000000     -5.000000     -5.000000     10.000000

     1   1 0 0      0.000000      0.000000      0.000000      0.000000
     1   0 1 0     -0.803752     -0.401876     -0.401876      0.000000
     1   0 0 1      0.000000      0.000000      0.000000      0.000000

     2   2 0 0     -3.369685     -3.746567     -3.746567      4.123448
     2   1 1 0     -0.000002      0.000002      0.000002     -0.000005
     2   1 0 1      0.000000      0.000000      0.000000      0.000000
     2   0 2 0     -4.738953     -3.382366     -3.382366      2.025780
     2   0 1 1      0.000000      0.000000      0.000000      0.000000

  Root  1 singlet a     0.284509342 a.u. (  7.7418964 eV)
     Dipole Oscillator Strength                          0.03302
  Root  2 singlet a     0.355365407 a.u. (  9.6699888 eV)
     Dipole Oscillator Strength                          0.00000
  Root  3 singlet a     0.365819944 a.u. (  9.9544714 eV)
     Dipole Oscillator Strength                          0.08505
  Root  4 singlet a     0.440990811 a.u. ( 11.9999756 eV)
     Dipole Oscillator Strength                          0.03428
  Root  5 singlet a     0.500327944 a.u. ( 13.6146219 eV)
     Dipole Oscillator Strength                          0.21477
 Total times  cpu:       31.7s     wall:       32.9s
