============================== echo of input deck ==============================
# $Id: h2o_selci.out,v 1.2 2003-04-16 20:23:20 edo Exp $
echo

# Selected CI with perturbation correction (1 frozen core) geometry
# optimization of the second 1A1 state of H2O in a 6-31g* basis in C2v.
# (the final geometry is linear, one component of a linear 1PI state)

# There are two tasks.  The first defines the CI+PT wavefunction at the
# initial geometry.  The second performs the optimization.

# Because only totally symmetric modes have non-zero gradients and the
# CI+PT also uses symmetry, the speed-up from using symmetry with numerical
# derivatives is proportional to the square of the number of irreducible
# representations.

# There is no print control in the CI so you'll get LOTS of output

start h2o_selcis

title  "Water CI+PT geometry optimization"

geometry
 symmetry c2v
 O 0       0        0.738
 H 0       1.430   -0.369
end

set "ao basis" 6-31g*

basis 6-31g* nosegment noprint
  O library 6-31g*
  H library 6-31g*
end

scf; thresh 1e-6; end

# First form initial CI reference space starting from all
# single excitations from the SCF and then perturbation selecting
# using a threshold of 0.0001 three times -- after this the
# reference should be self consistent.  Compute the first three
# roots to have some confidence that we have the real second root.

set fourindex:occ_frozen  1
set selci:exci 1
set selci:mode select
set "selci:selection thresholds" 0.0001 0.0001 0.0001
set selci:nroot 3

title  "case c2: energy with selected CI module"
task selci

# Now optimize using the CI+PT energy of the second root
# Need to lock the SCF orbitals and CI reference space
# and force regeneration of the MO integrals at each step

set selci:nroot 2
set selci:update  .false.
set "selci:moints:force" true
scf; print low; lock; end

title  "case c3: optimization with selected CI+PT energy"
task selci optimize      # This will be with numerical derivatives
================================================================================

         Total SCF energy =    -75.633733758652

 Vector    2  Occ=2.000000D+00  E=-1.198165D+00  Symmetry=a1

 Vector    3  Occ=2.000000D+00  E=-5.058106D-01  Symmetry=b1

 Vector    4  Occ=2.000000D+00  E=-4.468020D-01  Symmetry=b2

 Vector    5  Occ=2.000000D+00  E=-4.350474D-01  Symmetry=a1

 Vector    6  Occ=0.000000D+00  E=-2.883318D-03  Symmetry=a1

 Vector    7  Occ=0.000000D+00  E= 3.533271D-02  Symmetry=b2

 Vector    8  Occ=0.000000D+00  E= 9.365083D-01  Symmetry=a1

 Vector    9  Occ=0.000000D+00  E= 1.006662D+00  Symmetry=b2

 Vector   10  Occ=0.000000D+00  E= 1.056141D+00  Symmetry=a1

 Vector   11  Occ=0.000000D+00  E= 1.159166D+00  Symmetry=b1

 Vector   12  Occ=0.000000D+00  E= 1.270911D+00  Symmetry=a1

 Vector   13  Occ=0.000000D+00  E= 1.289738D+00  Symmetry=b2

 Vector   14  Occ=0.000000D+00  E= 2.101777D+00  Symmetry=a1

 Vector   15  Occ=0.000000D+00  E= 2.113460D+00  Symmetry=a2

 Root  1 final energy =      -75.6337337587
 Root  2 final energy =      -75.5054298757
 Root  3 final energy =      -75.2184989429
 Root  1 final energy =      -75.9110839989
 Root  2 final energy =      -75.7331662702
 Root  3 final energy =      -75.6830950963
 Root  1 final energy =      -75.9429638534
 Root  2 final energy =      -75.7624495344
 Root  3 final energy =      -75.7471036073
         Total SCF energy =    -75.633733758652
 Root  1 final energy =      -75.9440570196
 Root  2 final energy =      -75.7662307691
         Total SCF energy =    -75.632467865267
 Root  1 final energy =      -75.9434467601
 Root  2 final energy =      -75.7664009427
         Total SCF energy =    -75.635001045078
 Root  1 final energy =      -75.9446696669
 Root  2 final energy =      -75.7660654794
         Total SCF energy =    -75.632203069494
 Root  1 final energy =      -75.9433661537
 Root  2 final energy =      -75.7660492112
         Total SCF energy =    -75.635259768937
 Root  1 final energy =      -75.9447464318
 Root  2 final energy =      -75.7664219785
@ Step       Energy      Delta E   Gmax     Grms     Xrms     Xmax   Walltime
@ ---- ---------------- -------- -------- -------- -------- -------- --------
@    0     -75.78574185  0.0D+00  0.01240  0.00629  0.00000  0.00000     82.7
         Total SCF energy =    -75.635475767020
 Root  1 final energy =      -75.9447487962
 Root  2 final energy =      -75.7671946486
         Total SCF energy =    -75.637083258396
 Root  1 final energy =      -75.9453670804
 Root  2 final energy =      -75.7682032009
         Total SCF energy =    -75.635782743421
 Root  1 final energy =      -75.9447375236
 Root  2 final energy =      -75.7683619072
         Total SCF energy =    -75.638385448204
 Root  1 final energy =      -75.9459993021
 Root  2 final energy =      -75.7680480928
         Total SCF energy =    -75.635614851720
 Root  1 final energy =      -75.9447098394
 Root  2 final energy =      -75.7679843676
         Total SCF energy =    -75.638545761737
 Root  1 final energy =      -75.9460220232
 Root  2 final energy =      -75.7684318804
@    1     -75.78728920 -1.5D-03  0.01575  0.00742  0.02516  0.04962    159.5
         Total SCF energy =    -75.641845221345
 Root  1 final energy =      -75.9472336841
 Root  2 final energy =      -75.7708241679
         Total SCF energy =    -75.645740089218
 Root  1 final energy =      -75.9486264848
 Root  2 final energy =      -75.7737806667
         Total SCF energy =    -75.644356389659
 Root  1 final energy =      -75.9479533844
 Root  2 final energy =      -75.7738954712
         Total SCF energy =    -75.647126155574
 Root  1 final energy =      -75.9493029354
 Root  2 final energy =      -75.7736679217
         Total SCF energy =    -75.644444706380
 Root  1 final energy =      -75.9480645084
 Root  2 final energy =      -75.7734488809
         Total SCF energy =    -75.647026891219
 Root  1 final energy =      -75.9491839117
 Root  2 final energy =      -75.7741227404
@    2     -75.79211915 -4.8D-03  0.02620  0.01099  0.06002  0.12557    235.4
         Total SCF energy =    -75.653316815846
 Root  1 final energy =      -75.9516667072
 Root  2 final energy =      -75.7773329762
         Total SCF energy =    -75.659873332284
 Root  1 final energy =      -75.9540987883
 Root  2 final energy =      -75.7815012848
         Total SCF energy =    -75.658394492586
 Root  1 final energy =      -75.9533756788
 Root  2 final energy =      -75.7815406309
         Total SCF energy =    -75.661355230185
 Root  1 final energy =      -75.9548261310
 Root  2 final energy =      -75.7814634288
         Total SCF energy =    -75.658781955520
 Root  1 final energy =      -75.9536596164
 Root  2 final energy =      -75.7810096760
         Total SCF energy =    -75.660953391099
 Root  1 final energy =      -75.9545304994
 Root  2 final energy =      -75.7820031740
@    3     -75.79959693 -7.5D-03  0.04165  0.01701  0.06088  0.14389    311.1
         Total SCF energy =    -75.669781546858
 Root  1 final energy =      -75.9579797466
 Root  2 final energy =      -75.7864727874
         Total SCF energy =    -75.678659548842
 Root  1 final energy =      -75.9611306388
 Root  2 final energy =      -75.7923219283
         Total SCF energy =    -75.677080314158
 Root  1 final energy =      -75.9603512019
 Root  2 final energy =      -75.7922561344
         Total SCF energy =    -75.680242476494
 Root  1 final energy =      -75.9619158036
 Root  2 final energy =      -75.7923893186
         Total SCF energy =    -75.677795482937
 Root  1 final energy =      -75.9608509666
 Root  2 final energy =      -75.7916415400
         Total SCF energy =    -75.679509629160
 Root  1 final energy =      -75.9614003625
 Root  2 final energy =      -75.7930123602
@    4     -75.81111031 -1.2D-02  0.06064  0.02522  0.06098  0.14928    390.0
         Total SCF energy =    -75.688792549714
 Root  1 final energy =      -75.9647222708
 Root  2 final energy =      -75.7990157485
         Total SCF energy =    -75.697908687039
 Root  1 final energy =      -75.9676220015
 Root  2 final energy =      -75.8067696410
         Total SCF energy =    -75.696236546690
 Root  1 final energy =      -75.9667728007
 Root  2 final energy =      -75.8065668370
         Total SCF energy =    -75.699585080691
 Root  1 final energy =      -75.9684783888
 Root  2 final energy =      -75.8069737068
         Total SCF energy =    -75.697293902678
 Root  1 final energy =      -75.9675144071
 Root  2 final energy =      -75.8058798980
         Total SCF energy =    -75.698507312622
 Root  1 final energy =      -75.9677188312
 Root  2 final energy =      -75.8076695352
@    5     -75.82713686 -1.6D-02  0.07924  0.03385  0.06024  0.14418    470.6
         Total SCF energy =    -75.707174709878
 Root  1 final energy =      -75.9704912158
 Root  2 final energy =      -75.8155612313
         Total SCF energy =    -75.715384371360
 Root  1 final energy =      -75.9726195357
 Root  2 final energy =      -75.8254184951
         Total SCF energy =    -75.713632010197
 Root  1 final energy =      -75.9717045889
 Root  2 final energy =      -75.8250716282
         Total SCF energy =    -75.717141466768
 Root  1 final energy =      -75.9735424980
 Root  2 final energy =      -75.8257646746
         Total SCF energy =    -75.715040340311
 Root  1 final energy =      -75.9727050489
 Root  2 final energy =      -75.8243256657
         Total SCF energy =    -75.715711111652
 Root  1 final energy =      -75.9725211132
 Root  2 final energy =      -75.8265191438
@    6     -75.84755673 -2.0D-02  0.09472  0.04153  0.06001  0.14009    548.0
         Total SCF energy =    -75.723405546687
 Root  1 final energy =      -75.9744277445
 Root  2 final energy =      -75.8362193091
         Total SCF energy =    -75.730385659545
 Root  1 final energy =      -75.9753241388
 Root  2 final energy =      -75.8478638968
         Total SCF energy =    -75.728566419155
 Root  1 final energy =      -75.9743600823
 Root  2 final energy =      -75.8473993862
         Total SCF energy =    -75.732210013043
 Root  1 final energy =      -75.9762975832
 Root  2 final energy =      -75.8483244827
         Total SCF energy =    -75.730315332951
 Root  1 final energy =      -75.9756449185
         Total SCF energy =    -75.730439525235
@    7     -75.87165626 -2.4D-02  0.10579  0.04740  0.06000  0.13698    624.5
         Total SCF energy =    -75.737073051263
         Total SCF energy =    -75.742900034311
         Total SCF energy =    -75.741023009030
         Total SCF energy =    -75.744782422530
         Total SCF energy =    -75.743064810627
 Root  2 final energy =      -75.8716862285
         Total SCF energy =    -75.742723118755
 Root  1 final energy =      -75.9744337731
 Root  2 final energy =      -75.8743953853
@    8     -75.89832331 -2.7D-02  0.11217  0.05093  0.06000  0.13438    699.3
         Total SCF energy =    -75.748589105368
 Root  1 final energy =      -75.9737949911
 Root  2 final energy =      -75.8861912779
         Total SCF energy =    -75.753905483843
 Root  1 final energy =      -75.9717888047
 Root  2 final energy =      -75.8993604653
         Total SCF energy =    -75.751969826625
 Root  1 final energy =      -75.9706742470
 Root  2 final energy =      -75.8988786616
         Total SCF energy =    -75.755846505201
 Root  1 final energy =      -75.9729200344
 Root  2 final energy =      -75.8998238783
         Total SCF energy =    -75.754193038532
 Root  1 final energy =      -75.9726075429
 Root  2 final energy =      -75.8979796789
         Total SCF energy =    -75.753615602428
 Root  1 final energy =      -75.9709576646
 Root  2 final energy =      -75.9007383411
@    9     -75.92603790 -2.8D-02  0.11278  0.05087  0.06000  0.13233    773.4
         Total SCF energy =    -75.773534102910
 Root  1 final energy =      -75.9702417646
 Root  2 final energy =      -75.9308709490
         Total SCF energy =    -75.802611103942
 Root  1 final energy =      -76.0012864905
 Root  2 final energy =      -75.9111148966
         Total SCF energy =    -75.800564100395
 Root  1 final energy =      -75.9996683288
 Root  2 final energy =      -75.9110056277
         Total SCF energy =    -75.804660556725
 Root  1 final energy =      -76.0029133097
 Root  2 final energy =      -75.9112057995
         Total SCF energy =    -75.802356043026
 Root  1 final energy =      -76.0006595851
 Root  2 final energy =      -75.9122864851
         Total SCF energy =    -75.802868160958
 Root  1 final energy =      -76.0019192250
 Root  2 final energy =      -75.9099240166
@   10     -75.94287166 -1.7D-02  0.09619  0.03969  0.19692  0.43691    848.8
         Total SCF energy =    -75.790191441206
 Root  1 final energy =      -75.9844628715
 Root  2 final energy =      -75.9295560264
         Total SCF energy =    -75.786139837937
 Root  1 final energy =      -75.9821426022
 Root  2 final energy =      -75.9249664887
         Total SCF energy =    -75.784094742137
 Root  1 final energy =      -75.9806143187
 Root  2 final energy =      -75.9251684556
         Total SCF energy =    -75.788188235528
 Root  1 final energy =      -75.9836781638
 Root  2 final energy =      -75.9247502779
         Total SCF energy =    -75.786303605119
 Root  1 final energy =      -75.9826851241
 Root  2 final energy =      -75.9242194706
         Total SCF energy =    -75.785988998160
 Root  1 final energy =      -75.9816347745
 Root  2 final energy =      -75.9256580570
@   11     -75.95602177 -1.3D-02  0.06339  0.02605  0.11768  0.28327    926.6
         Total SCF energy =    -75.795301641098
 Root  1 final energy =      -75.9891370499
 Root  2 final energy =      -75.9288047360
         Total SCF energy =    -75.792477671000
 Root  1 final energy =      -75.9866379599
 Root  2 final energy =      -75.9299129068
         Total SCF energy =    -75.790416335815
 Root  1 final energy =      -75.9848386402
 Root  2 final energy =      -75.9300837098
         Total SCF energy =    -75.794541633438
 Root  1 final energy =      -75.9884407907
 Root  2 final energy =      -75.9297318203
         Total SCF energy =    -75.792485307705
 Root  1 final energy =      -75.9866283845
 Root  2 final energy =      -75.9298308904
         Total SCF energy =    -75.792485998473
 Root  1 final energy =      -75.9866276337
 Root  2 final energy =      -75.9298236310
@   12     -75.96029445 -4.3D-03  0.00409  0.00193  0.03654  0.08484   1000.5
         Total SCF energy =    -75.790489290350
 Root  1 final energy =      -75.9849020028
 Root  2 final energy =      -75.9300770537
         Total SCF energy =    -75.784541394898
 Root  1 final energy =      -75.9794778607
 Root  2 final energy =      -75.9301741663
         Total SCF energy =    -75.782491824260
 Root  1 final energy =      -75.9779096724
 Root  2 final energy =      -75.9306045110
         Total SCF energy =    -75.786594251230
 Root  1 final energy =      -75.9813581231
 Root  2 final energy =      -75.9301611530
         Total SCF energy =    -75.784555860094
 Root  1 final energy =      -75.9789708699
 Root  2 final energy =      -75.9293578421
         Total SCF energy =    -75.784543316427
 Root  1 final energy =      -75.9792840727
 Root  2 final energy =      -75.9298917492
@   13     -75.96041703 -1.2D-04  0.00381  0.00175  0.01293  0.02728   1074.1
         Total SCF energy =    -75.778345797025
 Root  1 final energy =      -75.9743299541
 Root  2 final energy =      -75.9308870750
         Total SCF energy =    -75.779265842496
 Root  1 final energy =      -75.9751290712
 Root  2 final energy =      -75.9308392470
         Total SCF energy =    -75.777225458262
 Root  1 final energy =      -75.9733575209
 Root  2 final energy =      -75.9309489012
         Total SCF energy =    -75.781309916163
 Root  1 final energy =      -75.9769048248
 Root  2 final energy =      -75.9307197052
         Total SCF energy =    -75.779272086884
 Root  1 final energy =      -75.9751239893
 Root  2 final energy =      -75.9307620497
         Total SCF energy =    -75.779276288623
 Root  1 final energy =      -75.9751218505
 Root  2 final energy =      -75.9307121275
@   14     -75.96046273 -4.6D-05  0.00107  0.00045  0.00876  0.01822   1151.4
         Total SCF energy =    -75.779973622117
 Root  1 final energy =      -75.9757443263
 Root  2 final energy =      -75.9308009494
         Total SCF energy =    -75.780100382370
 Root  1 final energy =      -75.9758544904
 Root  2 final energy =      -75.9307936768
         Total SCF energy =    -75.778058471489
 Root  1 final energy =      -75.9740806408
 Root  2 final energy =      -75.9309066124
         Total SCF energy =    -75.782145920306
 Root  1 final energy =      -75.9776330347
 Root  2 final energy =      -75.9306715815
         Total SCF energy =    -75.780108886734
 Root  1 final energy =      -75.9758338363
 Root  2 final energy =      -75.9306704775
         Total SCF energy =    -75.780108521008
 Root  1 final energy =      -75.9758345706
 Root  2 final energy =      -75.9306755404
@   15     -75.96046441 -1.7D-06  0.00009  0.00004  0.00144  0.00289   1225.0
         Total SCF energy =    -75.780144555802
 Root  1 final energy =      -75.9758928860
 Root  2 final energy =      -75.9307911512
         Total SCF energy =    -75.780144555802
 Root  1 final energy =      -75.9758928860
 Root  2 final energy =      -75.9307911512
         Total SCF energy =    -75.778102564882
 Root  1 final energy =      -75.9741189292
 Root  2 final energy =      -75.9309042776
         Total SCF energy =    -75.782190170428
 Root  1 final energy =      -75.9776715420
 Root  2 final energy =      -75.9306688726
         Total SCF energy =    -75.780152877041
 Root  1 final energy =      -75.9758716880
 Root  2 final energy =      -75.9306692658
         Total SCF energy =    -75.780152874919
 Root  1 final energy =      -75.9758716924
 Root  2 final energy =      -75.9306692951
@   16     -75.96046441 -8.0D-09  0.00000  0.00000  0.00008  0.00015   1296.9
@   16     -75.96046441 -8.0D-09  0.00000  0.00000  0.00008  0.00015   1296.9

 Output coordinates in angstroms (scale by  1.889725989 to convert to a.u.)

  No.       Tag          Charge          X              Y              Z
 ---- ---------------- ---------- -------------- -------------- --------------
    1 O                    8.0000     0.00000000     0.00000000    -0.51659973
    2 H                    1.0000     0.00000000     1.32187167    -0.51660014
    3 H                    1.0000     0.00000000    -1.32187167    -0.51660014

 Total times  cpu:      876.0s     wall:     1297.2s
