 Output coordinates in a.u. (scale by  1.000000000 to convert to a.u.)

  No.       Tag          Charge          X              Y              Z
 ---- ---------------- ---------- -------------- -------------- --------------
    1 O                    8.0000     0.00000000     0.00000000     0.20998000
    2 H                    1.0000     1.51526000     0.00000000    -0.83992000
    3 H                    1.0000    -1.51526000     0.00000000    -0.83992000

         Total SCF energy =    -76.059133206133

 Vector    2  Occ=2.000000D+00  E=-1.347682D+00  Symmetry=a1

 Vector    3  Occ=2.000000D+00  E=-7.168761D-01  Symmetry=b1

 Vector    4  Occ=2.000000D+00  E=-5.528522D-01  Symmetry=a1

 Vector    5  Occ=2.000000D+00  E=-5.021817D-01  Symmetry=b2

 Vector    6  Occ=0.000000D+00  E= 2.137947D-01  Symmetry=a1

 Vector    7  Occ=0.000000D+00  E= 3.062298D-01  Symmetry=b1

 Vector    8  Occ=0.000000D+00  E= 8.673953D-01  Symmetry=b2

 Vector    9  Occ=0.000000D+00  E= 8.915754D-01  Symmetry=a1

 Vector   10  Occ=0.000000D+00  E= 9.431577D-01  Symmetry=b1

 Vector   11  Occ=0.000000D+00  E= 1.169019D+00  Symmetry=a1

 Vector   12  Occ=0.000000D+00  E= 1.226910D+00  Symmetry=b1

 Vector   13  Occ=0.000000D+00  E= 1.649526D+00  Symmetry=a1

 Vector   14  Occ=0.000000D+00  E= 4.284350D+01  Symmetry=a1

         Total SCF energy =    -76.059133206133
         Total SCF energy =    -76.059131638959

 Vector    2  Occ=2.000000D+00  E=-1.347682D+00  Symmetry=a1

 Vector    3  Occ=2.000000D+00  E=-7.168762D-01  Symmetry=b1

 Vector    4  Occ=2.000000D+00  E=-5.528522D-01  Symmetry=a1

 Vector    5  Occ=2.000000D+00  E=-5.021816D-01  Symmetry=b2

 Vector    6  Occ=0.000000D+00  E= 2.137947D-01  Symmetry=a1

 Vector    7  Occ=0.000000D+00  E= 3.062298D-01  Symmetry=b1

 Vector    8  Occ=0.000000D+00  E= 8.673955D-01  Symmetry=b2

 Vector    9  Occ=0.000000D+00  E= 8.915756D-01  Symmetry=a1

 Vector   10  Occ=0.000000D+00  E= 9.431578D-01  Symmetry=b1

 Vector   11  Occ=0.000000D+00  E= 1.169019D+00  Symmetry=a1

 Vector   12  Occ=0.000000D+00  E= 1.226910D+00  Symmetry=b1

 Vector   13  Occ=0.000000D+00  E= 1.649526D+00  Symmetry=a1

 Vector   14  Occ=0.000000D+00  E= 4.284350D+01  Symmetry=a1

         Total SCF energy =    -76.009837656787

 Vector    2  Occ=2.000000D+00  E=-1.345950D+00  Symmetry=a1

 Vector    3  Occ=2.000000D+00  E=-7.172299D-01  Symmetry=b1

 Vector    4  Occ=2.000000D+00  E=-5.529641D-01  Symmetry=a1

 Vector    5  Occ=2.000000D+00  E=-5.024749D-01  Symmetry=b2

 Vector    6  Occ=0.000000D+00  E= 2.140351D-01  Symmetry=a1

 Vector    7  Occ=0.000000D+00  E= 3.061493D-01  Symmetry=b1

 Vector    8  Occ=0.000000D+00  E= 8.675501D-01  Symmetry=b2

 Vector    9  Occ=0.000000D+00  E= 8.917930D-01  Symmetry=a1

 Vector   10  Occ=0.000000D+00  E= 9.432639D-01  Symmetry=b1

 Vector   11  Occ=0.000000D+00  E= 1.169314D+00  Symmetry=a1

 Vector   12  Occ=0.000000D+00  E= 1.227067D+00  Symmetry=b1

 Vector   13  Occ=0.000000D+00  E= 1.652202D+00  Symmetry=a1

 Vector   14  Occ=0.000000D+00  E= 4.332907D+01  Symmetry=a1

       Multipole analysis of the density wrt the origin
       ------------------------------------------------

     L   x y z        total         open         nuclear
     -   - - -        -----         ----         -------
     0   0 0 0      0.000000      0.000000     10.000000

     1   1 0 0      0.000000      0.000000      0.000000
     1   0 1 0      0.000000      0.000000      0.000000
     1   0 0 1     -1.014188      0.000000      0.000000

     2   2 0 0     -2.889052      0.000000      4.592026
     2   1 1 0      0.000000      0.000000      0.000000
     2   1 0 1      0.000000      0.000000      0.000000
     2   0 2 0     -5.528187      0.000000      0.000000
     2   0 1 1      0.000000      0.000000      0.000000

 Total times  cpu:        0.6s     wall:        0.7s
