============================== echo of input deck ==============================
echo
start h2o

basis
  O library 6-31g*
  H library 6-31g*
end

geometry noautoz noautosym nocenter units au
 O                     0.00000000     0.00000000     0.00000000
 H                     0.23701217     0.50006465    -0.66134565
 H                     0.08518191    -0.91769081    -0.30894068
end
driver
clear
maxiter 40
end

####################################
#      TESTING HARM BONDS          #
####################################

#one spring bond
constraints
  spring bond 1 3 5.0 1.30
  fix atom 1:2
end

task dft optimize

constraints
clear
end

#two spring bonds
constraints
  spring bond 1 3 5.0 1.30
  spring bond 1 2 5.0 1.70
  fix atom 1
end
dft;print low;end
task dft optimize

constraints
clear
end

#same thing but without clearing constraints in between
geometry noautoz noautosym nocenter units au
 O                     0.00000000     0.00000000     0.00000000
 H                     0.23701217     0.50006465    -0.66134565
 H                     0.08518191    -0.91769081    -0.30894068
end

constraints
  spring bond 1 3 5.0 1.30
  fix atom 1:2
end
task dft optimize

constraints
  spring bond 1 2 5.0 1.70
  unfix atom 2
end
task dft optimize

constraints
clear
end

#same thing but using namespaces
geometry noautoz noautosym nocenter units au
 O                     0.00000000     0.00000000     0.00000000
 H                     0.23701217     0.50006465    -0.66134565
 H                     0.08518191    -0.91769081    -0.30894068
end

constraints one
  spring bond 1 3 5.0 1.30
  fix atom 1:2
end

constraints two
  spring bond 1 3 5.0 1.30
  spring bond 1 2 5.0 1.70
  fix atom 1
end

set constraints one
task dft optimize

set constraints two
task dft optimize

================================================================================

         Total DFT energy =    -74.004244578548
@ Step       Energy      Delta E   Gmax     Grms     Xrms     Xmax   Walltime
@ ---- ---------------- -------- -------- -------- -------- -------- --------
@    0     -73.46644727  0.0E+00  5.96333  2.09625  0.00000  0.00000      3.0
         Total DFT energy =    -74.619589533293
         Total DFT energy =    -74.588586589354
@    1     -74.57175409 -1.1E+00  0.08756  0.03047  0.15210  0.26344      9.5
         Total DFT energy =    -74.585435612444
         Total DFT energy =    -74.586964040432
@    2     -74.57953659 -7.8E-03  0.29605  0.10140  0.07480  0.19108     16.6
         Total DFT energy =    -74.626831284723
         Total DFT energy =    -74.607327952684
@    3     -74.58755250 -8.0E-03  0.01953  0.00894  0.05760  0.15645     22.0
         Total DFT energy =    -74.619848509906
         Total DFT energy =    -74.610698988346
@    4     -74.58790886 -3.6E-04  0.07572  0.02720  0.01223  0.03083     26.5
         Total DFT energy =    -74.611259824167
         Total DFT energy =    -74.613606115617
@    5     -74.58852545 -6.2E-04  0.12387  0.04204  0.03473  0.08107     31.4
         Total DFT energy =    -74.609740324612
         Total DFT energy =    -74.608053913247
@    6     -74.58911462 -5.9E-04  0.00797  0.00365  0.00845  0.02079     36.8
         Total DFT energy =    -74.608691758642
         Total DFT energy =    -74.610743188297
@    7     -74.58935817 -2.4E-04  0.05965  0.01997  0.03535  0.09119     42.0
         Total DFT energy =    -74.608220311287
         Total DFT energy =    -74.608546149939

 Vector    6  Occ=0.000000E+00  E= 1.210528E-01

 Vector    7  Occ=0.000000E+00  E= 2.096258E-01

 Vector    8  Occ=0.000000E+00  E= 7.577133E-01

 Vector    9  Occ=0.000000E+00  E= 8.085700E-01

 Vector   10  Occ=0.000000E+00  E= 9.274920E-01

 Vector   11  Occ=0.000000E+00  E= 1.103181E+00

 Vector   12  Occ=0.000000E+00  E= 1.239715E+00

 Vector   13  Occ=0.000000E+00  E= 1.530254E+00

 Vector   14  Occ=0.000000E+00  E= 1.596258E+00

 Vector   15  Occ=0.000000E+00  E= 1.673370E+00

@    8     -74.58945704 -9.9E-05  0.01310  0.00455  0.00625  0.01457     46.7
         Total DFT energy =    -74.608204610908

 Vector    2  Occ=2.000000E+00  E=-1.106473E+00

 Vector    3  Occ=2.000000E+00  E=-6.727333E-01

 Vector    4  Occ=2.000000E+00  E=-3.212863E-01

 Vector    5  Occ=2.000000E+00  E=-2.786297E-01

 Vector    6  Occ=0.000000E+00  E= 1.213599E-01

 Vector    7  Occ=0.000000E+00  E= 2.093632E-01

 Vector    8  Occ=0.000000E+00  E= 7.583230E-01

 Vector    9  Occ=0.000000E+00  E= 8.085545E-01

 Vector   10  Occ=0.000000E+00  E= 9.290906E-01

 Vector   11  Occ=0.000000E+00  E= 1.100566E+00

 Vector   12  Occ=0.000000E+00  E= 1.240705E+00

 Vector   13  Occ=0.000000E+00  E= 1.530054E+00

 Vector   14  Occ=0.000000E+00  E= 1.595512E+00

 Vector   15  Occ=0.000000E+00  E= 1.674485E+00

         Total DFT energy =    -74.607982447084

 Vector    2  Occ=2.000000E+00  E=-1.105308E+00

 Vector    3  Occ=2.000000E+00  E=-6.745930E-01

 Vector    4  Occ=2.000000E+00  E=-3.203359E-01

 Vector    5  Occ=2.000000E+00  E=-2.785815E-01

 Vector    6  Occ=0.000000E+00  E= 1.217257E-01

 Vector    7  Occ=0.000000E+00  E= 2.090098E-01

 Vector    8  Occ=0.000000E+00  E= 7.591029E-01

 Vector    9  Occ=0.000000E+00  E= 8.085424E-01

 Vector   10  Occ=0.000000E+00  E= 9.311100E-01

 Vector   11  Occ=0.000000E+00  E= 1.096976E+00

 Vector   12  Occ=0.000000E+00  E= 1.241929E+00

 Vector   13  Occ=0.000000E+00  E= 1.529845E+00

 Vector   14  Occ=0.000000E+00  E= 1.594588E+00

 Vector   15  Occ=0.000000E+00  E= 1.675907E+00

@    9     -74.58951755 -6.1E-05  0.00141  0.00054  0.01449  0.03935     51.5
         Total DFT energy =    -74.608059786056

 Vector    2  Occ=2.000000E+00  E=-1.104692E+00

 Vector    3  Occ=2.000000E+00  E=-6.754585E-01

 Vector    4  Occ=2.000000E+00  E=-3.198470E-01

 Vector    5  Occ=2.000000E+00  E=-2.785448E-01

 Vector    6  Occ=0.000000E+00  E= 1.218890E-01

 Vector    7  Occ=0.000000E+00  E= 2.088163E-01

 Vector    8  Occ=0.000000E+00  E= 7.594942E-01

 Vector    9  Occ=0.000000E+00  E= 8.085387E-01

 Vector   10  Occ=0.000000E+00  E= 9.320976E-01

 Vector   11  Occ=0.000000E+00  E= 1.094981E+00

 Vector   12  Occ=0.000000E+00  E= 1.242479E+00

 Vector   13  Occ=0.000000E+00  E= 1.529768E+00

 Vector   14  Occ=0.000000E+00  E= 1.594144E+00

 Vector   15  Occ=0.000000E+00  E= 1.676623E+00

         Total DFT energy =    -74.608059786056
@   10     -74.58952098 -3.4E-06  0.00329  0.00110  0.00405  0.01089     53.8
         Total DFT energy =    -74.607913088938

 Vector    2  Occ=2.000000E+00  E=-1.104592E+00

 Vector    3  Occ=2.000000E+00  E=-6.757135E-01

 Vector    4  Occ=2.000000E+00  E=-3.197535E-01

 Vector    5  Occ=2.000000E+00  E=-2.785543E-01

 Vector    6  Occ=0.000000E+00  E= 1.219404E-01

 Vector    7  Occ=0.000000E+00  E= 2.087843E-01

 Vector    8  Occ=0.000000E+00  E= 7.595766E-01

 Vector    9  Occ=0.000000E+00  E= 8.085301E-01

 Vector   10  Occ=0.000000E+00  E= 9.323442E-01

 Vector   11  Occ=0.000000E+00  E= 1.094672E+00

 Vector   12  Occ=0.000000E+00  E= 1.242673E+00

 Vector   13  Occ=0.000000E+00  E= 1.529730E+00

 Vector   14  Occ=0.000000E+00  E= 1.594024E+00

 Vector   15  Occ=0.000000E+00  E= 1.676772E+00

         Total DFT energy =    -74.607913088938
@   11     -74.58952157 -5.9E-07  0.00028  0.00009  0.00096  0.00263     56.0
         Total DFT energy =    -74.607900013356

                       DFT Final Molecular Orbital Analysis
                       ------------------------------------

 Vector    2  Occ=2.000000E+00  E=-1.104561E+00

 Vector    3  Occ=2.000000E+00  E=-6.757673E-01

 Vector    4  Occ=2.000000E+00  E=-3.197270E-01

 Vector    5  Occ=2.000000E+00  E=-2.785532E-01

 Vector    6  Occ=0.000000E+00  E= 1.219510E-01

 Vector    7  Occ=0.000000E+00  E= 2.087749E-01

 Vector    8  Occ=0.000000E+00  E= 7.595984E-01

 Vector    9  Occ=0.000000E+00  E= 8.085299E-01

 Vector   10  Occ=0.000000E+00  E= 9.324020E-01

 Vector   11  Occ=0.000000E+00  E= 1.094576E+00

 Vector   12  Occ=0.000000E+00  E= 1.242712E+00

 Vector   13  Occ=0.000000E+00  E= 1.529724E+00

 Vector   14  Occ=0.000000E+00  E= 1.593997E+00

 Vector   15  Occ=0.000000E+00  E= 1.676810E+00

     Multipole analysis of the density
     ---------------------------------

     L   x y z        total         alpha         beta         nuclear
     -   - - -        -----         -----         ----         -------
     0   0 0 0      0.000000     -5.000000     -5.000000     10.000000

     1   1 0 0      0.133956     -0.042704     -0.042704      0.219364
     1   0 1 0     -0.382268      0.238010      0.238010     -0.858287
     1   0 0 1     -0.437165      0.150416      0.150416     -0.737997

     2   2 0 0     -4.630308     -2.343397     -2.343397      0.056486
     2   1 1 0      0.136783     -0.002855     -0.002855      0.142494
     2   1 0 1     -0.174213     -0.009409     -0.009409     -0.155394
     2   0 2 0     -3.254029     -2.674607     -2.674607      2.095185
     2   0 1 1     -0.272057     -0.022730     -0.022730     -0.226596

         Total DFT energy =    -74.607900013356
@   12     -74.58952158 -9.4E-09  0.00002  0.00001  0.00023  0.00063     58.0
@   12     -74.58952158 -9.4E-09  0.00002  0.00001  0.00023  0.00063     58.0
         Total DFT energy =    -74.607900013610
@ Step       Energy      Delta E   Gmax     Grms     Xrms     Xmax   Walltime
@ ---- ---------------- -------- -------- -------- -------- -------- --------
@    0     -71.08108811  0.0E+00  9.98579  4.34018  0.00000  0.00000     59.7
         Total DFT energy =    -75.622434957840
         Total DFT energy =    -75.694733850586
@    1     -75.52766451 -4.4E+00  1.39543  0.66699  0.22995  0.39828     64.7
         Total DFT energy =    -75.747812057444
         Total DFT energy =    -75.747812057444
@    2     -75.70239050 -1.7E-01  0.37604  0.13172  0.14259  0.30000     71.5
         Total DFT energy =    -75.707396259590
         Total DFT energy =    -75.726174273813
@    3     -75.70701809 -4.6E-03  0.07877  0.04577  0.04568  0.12644     77.9
         Total DFT energy =    -75.725555267263
         Total DFT energy =    -75.725628115956
@    4     -75.70809775 -1.1E-03  0.05324  0.02078  0.01668  0.03561     84.6
         Total DFT energy =    -75.729271589973
         Total DFT energy =    -75.731083772314
@    5     -75.70850039 -4.0E-04  0.04486  0.01658  0.01822  0.04580     92.2
         Total DFT energy =    -75.729943803700
         Total DFT energy =    -75.728950290560
@    6     -75.70865514 -1.5E-04  0.00615  0.00324  0.00573  0.00937     97.4
         Total DFT energy =    -75.729466585189
         Total DFT energy =    -75.729466585189
@    7     -75.70868499 -3.0E-05  0.00575  0.00231  0.00729  0.01744    101.0
         Total DFT energy =    -75.729160938550
         Total DFT energy =    -75.729160938550
@    8     -75.70868709 -2.1E-06  0.00026  0.00012  0.00049  0.00069    103.8
@    8     -75.70868709 -2.1E-06  0.00026  0.00012  0.00049  0.00069    103.8
         Total DFT energy =    -74.004244571438
@ Step       Energy      Delta E   Gmax     Grms     Xrms     Xmax   Walltime
@ ---- ---------------- -------- -------- -------- -------- -------- --------
@    0     -73.46644727  0.0E+00  5.96333  2.09626  0.00000  0.00000    108.2
         Total DFT energy =    -74.471789350185
         Total DFT energy =    -74.601294172562
@    1     -74.55149580 -1.1E+00  0.31906  0.15276  0.18191  0.48352    116.0
         Total DFT energy =    -74.572737308316
         Total DFT energy =    -74.579194181134
@    2     -74.57136939 -2.0E-02  0.29314  0.10178  0.07482  0.18397    121.1
         Total DFT energy =    -74.600246693362
         Total DFT energy =    -74.644950092432
@    3     -74.54595996  2.5E-02  0.89028  0.32685  0.13954  0.38440    126.6
         Total DFT energy =    -74.618019325756
         Total DFT energy =    -74.613666218659
@    4     -74.57984660 -3.4E-02  0.22280  0.08611  0.06099  0.17511    131.1
         Total DFT energy =    -74.608081965855
         Total DFT energy =    -74.602920549052
@    5     -74.58502631 -5.2E-03  0.03153  0.01259  0.03272  0.09217    135.6
         Total DFT energy =    -74.605019129036
         Total DFT energy =    -74.620293329844
@    6     -74.58638095 -1.4E-03  0.26892  0.09081  0.08973  0.25584    141.0
         Total DFT energy =    -74.605114982111
         Total DFT energy =    -74.610453527133
@    7     -74.58840100 -2.0E-03  0.06416  0.02288  0.02964  0.08350    146.0
         Total DFT energy =    -74.609633206695
         Total DFT energy =    -74.608340464533
@    8     -74.58928280 -8.8E-04  0.01045  0.00420  0.02959  0.08677    150.7
         Total DFT energy =    -74.609371959787
         Total DFT energy =    -74.609791944188
@ ---- ---------------- -------- -------- -------- -------- -------- --------
@    0     -71.08108809  0.0E+00  9.98580  4.34019  0.00000  0.00000    167.6
         Total DFT energy =    -75.622361100897
         Total DFT energy =    -75.694604793383
@    1     -75.52749539 -4.4E+00  1.39593  0.66703  0.22994  0.39826    172.9
         Total DFT energy =    -75.747180268925
         Total DFT energy =    -75.747180268925
@    2     -75.70193566 -1.7E-01  0.37143  0.13171  0.14226  0.30000    175.8
         Total DFT energy =    -75.708017616374
         Total DFT energy =    -75.725146827860
@    3     -75.70645672 -4.5E-03  0.07579  0.04424  0.04714  0.13646    183.7
         Total DFT energy =    -75.725947760143
         Total DFT energy =    -75.725685922508
@    4     -75.70758929 -1.1E-03  0.03858  0.01926  0.01585  0.03669    194.0
         Total DFT energy =    -75.729103995185
         Total DFT energy =    -75.733337022795
@    5     -75.70812709 -5.4E-04  0.09177  0.03223  0.02963  0.08512    199.6
         Total DFT energy =    -75.730029992168
         Total DFT energy =    -75.729230028860
@    6     -75.70845409 -3.3E-04  0.00882  0.00369  0.00629  0.01700    204.1
         Total DFT energy =    -75.729295131071
         Total DFT energy =    -75.729643425521
@    7     -75.70867799 -2.2E-04  0.00793  0.00478  0.02121  0.05429    209.0
         Total DFT energy =    -75.729125747812
         Total DFT energy =    -75.729125747812
@    8     -75.70868696 -9.0E-06  0.00041  0.00018  0.00084  0.00216    211.4
         Total DFT energy =    -75.729163594896
         Total DFT energy =    -75.729163594896
@    9     -75.70868712 -1.6E-07  0.00028  0.00011  0.00059  0.00154    213.4
@    9     -75.70868712 -1.6E-07  0.00028  0.00011  0.00059  0.00154    213.4
         Total DFT energy =    -74.004244576633
@ Step       Energy      Delta E   Gmax     Grms     Xrms     Xmax   Walltime
@ ---- ---------------- -------- -------- -------- -------- -------- --------
@    0     -73.46644727  0.0E+00  5.96333  2.09626  0.00000  0.00000    216.1
         Total DFT energy =    -74.539322849539
         Total DFT energy =    -74.596786909199
@    1     -74.56096576 -1.1E+00  0.19183  0.09213  0.17439  0.37334    221.4
         Total DFT energy =    -74.578504175622
         Total DFT energy =    -74.580884685979
@    2     -74.57369725 -1.3E-02  0.30894  0.10731  0.07253  0.20284    226.3
         Total DFT energy =    -74.603117180249
         Total DFT energy =    -74.653204873410
@    3     -74.53530811  3.8E-02  1.09152  0.38100  0.15611  0.41941    231.2
         Total DFT energy =    -74.623158880942
         Total DFT energy =    -74.617839309904
@    4     -74.58342769 -4.8E-02  0.25202  0.09072  0.06647  0.17377    237.5
         Total DFT energy =    -74.610477623682
         Total DFT energy =    -74.605503496769
@    5     -74.58679897 -3.4E-03  0.01870  0.00737  0.01715  0.05046    242.3
         Total DFT energy =    -74.605701143684
         Total DFT energy =    -74.607657580198
@    6     -74.58846633 -1.7E-03  0.01278  0.00552  0.03333  0.07679    247.5
         Total DFT energy =    -74.615024594119
         Total DFT energy =    -74.610743706959
@    7     -74.58900153 -5.4E-04  0.06224  0.02147  0.02396  0.05434    252.1
         Total DFT energy =    -74.610148806358
         Total DFT energy =    -74.610068366562
@    8     -74.58940548 -4.0E-04  0.04506  0.01518  0.02586  0.05873    256.5
         Total DFT energy =    -74.607053385759
         Total DFT energy =    -74.607888175896
@    9     -74.58948924 -8.4E-05  0.00192  0.00073  0.00225  0.00593    260.8
         Total DFT energy =    -74.608024749398
         Total DFT energy =    -74.608195663807
@   10     -74.58952000 -3.1E-05  0.00617  0.00206  0.01108  0.02516    266.3
         Total DFT energy =    -74.607927771717
         Total DFT energy =    -74.607927771717
@   11     -74.58952151 -1.5E-06  0.00055  0.00019  0.00026  0.00068    269.2
         Total DFT energy =    -74.607900083791
         Total DFT energy =    -74.607900083791
@   12     -74.58952157 -6.6E-08  0.00001  0.00001  0.00052  0.00125    271.1
@   12     -74.58952157 -6.6E-08  0.00001  0.00001  0.00052  0.00125    271.1
         Total DFT energy =    -74.607900083791
@ Step       Energy      Delta E   Gmax     Grms     Xrms     Xmax   Walltime
@ ---- ---------------- -------- -------- -------- -------- -------- --------
@    0     -71.08108811  0.0E+00  9.98580  4.34018  0.00000  0.00000    271.7
         Total DFT energy =    -75.622694683241
         Total DFT energy =    -75.695160888762
@    1     -75.52821687 -4.4E+00  1.39378  0.66691  0.22997  0.39832    277.0
         Total DFT energy =    -75.748300535246
         Total DFT energy =    -75.748300535246
@    2     -75.70209331 -1.7E-01  0.37642  0.13455  0.14273  0.30000    279.9
         Total DFT energy =    -75.708948613892
         Total DFT energy =    -75.726429086120
@    3     -75.70741884 -5.3E-03  0.07839  0.04735  0.04791  0.12228    285.7
         Total DFT energy =    -75.726441808361
         Total DFT energy =    -75.726410659123
@    4     -75.70837804 -9.6E-04  0.04452  0.01652  0.01187  0.02395    290.3
         Total DFT energy =    -75.729020661604
         Total DFT energy =    -75.730242338602
@    5     -75.70859922 -2.2E-04  0.02528  0.00885  0.01035  0.02436    294.9
         Total DFT energy =    -75.729781409398
         Total DFT energy =    -75.729123697676
@    6     -75.70868393 -8.5E-05  0.00297  0.00157  0.00888  0.01995    299.2
         Total DFT energy =    -75.729249391990
         Total DFT energy =    -75.729249391990
@    7     -75.70868697 -3.0E-06  0.00187  0.00065  0.00228  0.00484    301.6
         Total DFT energy =    -75.729142052823
         Total DFT energy =    -75.729142052823
@    8     -75.70868712 -1.5E-07  0.00015  0.00008  0.00016  0.00041    303.6
@    8     -75.70868712 -1.5E-07  0.00015  0.00008  0.00016  0.00041    303.6

 Output coordinates in a.u. (scale by  1.000000000 to convert to a.u.)

  No.       Tag          Charge          X              Y              Z
 ---- ---------------- ---------- -------------- -------------- --------------
    1 O                    8.0000     0.00000000     0.00000000     0.00000000
    2 H                    1.0000     0.92122190     0.96950063    -1.06199546
    3 H                    1.0000     0.28129001    -1.32061334    -0.18963010

 Total times  cpu:      178.3s     wall:      303.6s
