============================== echo of input deck ==============================
title "H2S with finite nucleus at 134pm, 95 degrees"

echo
start h2s

memory global 40 mb stack 23 mb heap 5 mb

geometry "finite" units ang
S 0.00000000 0.00000000 0.00000000 nucleus finite
H 0.00000000  0.987951631325566 -0.905290878204984 nucleus finite
H 0.00000000 -0.987951631325566 -0.905290878204984 nucleus finite
end

geometry "finite default" units ang nucleus finite
S 0.00000000 0.00000000 0.00000000
H 0.00000000  0.987951631325566 -0.905290878204984
H 0.00000000 -0.987951631325566 -0.905290878204984
end

geometry "point" units ang
S 0.00000000 0.00000000 0.00000000
H 0.00000000  0.987951631325566 -0.905290878204984
H 0.00000000 -0.987951631325566 -0.905290878204984
end

geometry "mixed" units ang nucleus finite
S 0.00000000 0.00000000 0.00000000
H 0.00000000  0.987951631325566 -0.905290878204984 nuc pt
H 0.00000000 -0.987951631325566 -0.905290878204984 nuc pt
end

basis "ao basis" spherical
S s
  1.10800000E+05  2.47525366E-04  6.86752181E-05  1.99116251E-05
  1.66100000E+04  1.92019465E-03  5.27675273E-04  1.53581037E-04
  3.78100000E+03  9.96173249E-03  2.79672053E-03  8.09989804E-04
  1.07100000E+03  4.02973359E-02  1.12652474E-02  3.29200496E-03
  3.49800000E+02  1.28603593E-01  3.88842362E-02  1.13033912E-02
  1.26300000E+02  3.03479778E-01  9.95046090E-02  2.96604333E-02
  4.92600000E+01  4.21433287E-01  1.99746692E-01  6.00180921E-02
  2.01600000E+01  2.30780676E-01  1.23361189E-01  4.13692029E-02
  5.72000000E+00  1.78960350E-02 -5.13226965E-01 -2.07699821E-01
  2.18200000E+00 -2.97496007E-03 -6.07108443E-01 -3.93076453E-01
  4.32700000E-01  8.49781089E-04 -3.96409786E-02  6.34108302E-01
  1.57000000E-01 -3.67999375E-04  9.45888746E-03  5.55821684E-01
S s
  1.57000000E-01  1.00000000E+00
S s
  5.07000000E-02  1.00000000E+00
S p
  3.99700000E+02  4.47505243E-03  1.16296807E-03
  9.41900000E+01  3.41681546E-02  8.65221383E-03
  2.97500000E+01  1.44239042E-01  3.91109778E-02
  1.07700000E+01  3.53901567E-01  9.33574724E-02
  4.11900000E+00  4.59027601E-01  1.48347593E-01
  1.62500000E+00  2.06382078E-01 -3.16215433E-02
  4.72600000E-01  1.04193418E-02 -5.56567324E-01
  1.40700000E-01  1.59579375E-04 -5.39129071E-01
S p
  1.40700000E-01  1.00000000E+00
S p
  3.99000000E-02  1.00000000E+00
S d
  4.79000000E-01  1.00000000E+00
S d
  1.52000000E-01  1.00000000E+00
H s
  1.30100000E+01  1.96850442E-02
  1.96200000E+00  1.37977029E-01
  4.44600000E-01  4.78148065E-01
  1.22000000E-01  5.01239337E-01
H s
  1.22000000E-01  1.0
H p
  7.27000000E-01  1.00000000E+00
end

scf
 thresh 1.0e-8
end

set geometry "finite"

task scf

scf
end

set geometry "point"

task scf

scf
end

set geometry "finite default"

task scf
scf
end

set geometry "mixed"

task scf
================================================================================

 Output coordinates in angstroms (scale by  1.889725989 to convert to a.u.)

  No.       Tag          Charge          X              Y              Z
 ---- ---------------- ---------- -------------- -------------- --------------
    1 S                   16.0000     0.00000000     0.00000000     0.10058788
    2 H                    1.0000    -0.98795163     0.00000000    -0.80470300
    3 H                    1.0000     0.98795163     0.00000000    -0.80470300

         Total SCF energy =   -398.697481487542

 Vector    2  Occ=2.000000D+00  E=-8.971996D+00  Symmetry=a1

 Vector    3  Occ=2.000000D+00  E=-6.654041D+00  Symmetry=b1

 Vector    4  Occ=2.000000D+00  E=-6.652871D+00  Symmetry=a1

 Vector    5  Occ=2.000000D+00  E=-6.650433D+00  Symmetry=b2

 Vector    6  Occ=2.000000D+00  E=-9.832517D-01  Symmetry=a1

 Vector    7  Occ=2.000000D+00  E=-5.948305D-01  Symmetry=b1

 Vector    8  Occ=2.000000D+00  E=-4.968985D-01  Symmetry=a1

 Vector    9  Occ=2.000000D+00  E=-3.843927D-01  Symmetry=b2

 Vector   10  Occ=0.000000D+00  E= 9.308727D-02  Symmetry=a1

 Vector   11  Occ=0.000000D+00  E= 1.012015D-01  Symmetry=b1

 Vector   12  Occ=0.000000D+00  E= 1.193725D-01  Symmetry=a1

 Vector   13  Occ=0.000000D+00  E= 1.263096D-01  Symmetry=b2

 Vector   14  Occ=0.000000D+00  E= 1.715873D-01  Symmetry=b1

 Vector   15  Occ=0.000000D+00  E= 2.346975D-01  Symmetry=a1

 Vector   16  Occ=0.000000D+00  E= 3.410235D-01  Symmetry=a1

 Vector   17  Occ=0.000000D+00  E= 3.593769D-01  Symmetry=a2

 Vector   18  Occ=0.000000D+00  E= 3.659305D-01  Symmetry=b2

 Vector   19  Occ=0.000000D+00  E= 4.265772D-01  Symmetry=b1

 Vector   20  Occ=0.000000D+00  E= 4.417925D-01  Symmetry=a1

 Vector   21  Occ=0.000000D+00  E= 7.967846D-01  Symmetry=a1

         Total SCF energy =   -398.697804322203

 Vector    2  Occ=2.000000D+00  E=-8.972006D+00  Symmetry=a1

 Vector    3  Occ=2.000000D+00  E=-6.654041D+00  Symmetry=b1

 Vector    4  Occ=2.000000D+00  E=-6.652871D+00  Symmetry=a1

 Vector    5  Occ=2.000000D+00  E=-6.650432D+00  Symmetry=b2

 Vector    6  Occ=2.000000D+00  E=-9.832524D-01  Symmetry=a1

 Vector    7  Occ=2.000000D+00  E=-5.948304D-01  Symmetry=b1

 Vector    8  Occ=2.000000D+00  E=-4.968985D-01  Symmetry=a1

 Vector    9  Occ=2.000000D+00  E=-3.843925D-01  Symmetry=b2

 Vector   10  Occ=0.000000D+00  E= 9.308725D-02  Symmetry=a1

 Vector   11  Occ=0.000000D+00  E= 1.012015D-01  Symmetry=b1

 Vector   12  Occ=0.000000D+00  E= 1.193724D-01  Symmetry=a1

 Vector   13  Occ=0.000000D+00  E= 1.263097D-01  Symmetry=b2

 Vector   14  Occ=0.000000D+00  E= 1.715874D-01  Symmetry=b1

 Vector   15  Occ=0.000000D+00  E= 2.346975D-01  Symmetry=a1

 Vector   16  Occ=0.000000D+00  E= 3.410236D-01  Symmetry=a1

 Vector   17  Occ=0.000000D+00  E= 3.593769D-01  Symmetry=a2

 Vector   18  Occ=0.000000D+00  E= 3.659305D-01  Symmetry=b2

 Vector   19  Occ=0.000000D+00  E= 4.265772D-01  Symmetry=b1

 Vector   20  Occ=0.000000D+00  E= 4.417925D-01  Symmetry=a1

 Vector   21  Occ=0.000000D+00  E= 7.967841D-01  Symmetry=a1

         Total SCF energy =   -398.697481487548

 Vector    2  Occ=2.000000D+00  E=-8.971996D+00  Symmetry=a1

 Vector    3  Occ=2.000000D+00  E=-6.654041D+00  Symmetry=b1

 Vector    4  Occ=2.000000D+00  E=-6.652871D+00  Symmetry=a1

 Vector    5  Occ=2.000000D+00  E=-6.650433D+00  Symmetry=b2

 Vector    6  Occ=2.000000D+00  E=-9.832517D-01  Symmetry=a1

 Vector    7  Occ=2.000000D+00  E=-5.948305D-01  Symmetry=b1

 Vector    8  Occ=2.000000D+00  E=-4.968985D-01  Symmetry=a1

 Vector    9  Occ=2.000000D+00  E=-3.843927D-01  Symmetry=b2

 Vector   10  Occ=0.000000D+00  E= 9.308727D-02  Symmetry=a1

 Vector   11  Occ=0.000000D+00  E= 1.012015D-01  Symmetry=b1

 Vector   12  Occ=0.000000D+00  E= 1.193725D-01  Symmetry=a1

 Vector   13  Occ=0.000000D+00  E= 1.263096D-01  Symmetry=b2

 Vector   14  Occ=0.000000D+00  E= 1.715873D-01  Symmetry=b1

 Vector   15  Occ=0.000000D+00  E= 2.346975D-01  Symmetry=a1

 Vector   16  Occ=0.000000D+00  E= 3.410235D-01  Symmetry=a1

 Vector   17  Occ=0.000000D+00  E= 3.593769D-01  Symmetry=a2

 Vector   18  Occ=0.000000D+00  E= 3.659305D-01  Symmetry=b2

 Vector   19  Occ=0.000000D+00  E= 4.265772D-01  Symmetry=b1

 Vector   20  Occ=0.000000D+00  E= 4.417925D-01  Symmetry=a1

 Vector   21  Occ=0.000000D+00  E= 7.967846D-01  Symmetry=a1

         Total SCF energy =   -398.697481488536

 Vector    2  Occ=2.000000D+00  E=-8.971996D+00  Symmetry=a1

 Vector    3  Occ=2.000000D+00  E=-6.654041D+00  Symmetry=b1

 Vector    4  Occ=2.000000D+00  E=-6.652871D+00  Symmetry=a1

 Vector    5  Occ=2.000000D+00  E=-6.650433D+00  Symmetry=b2

 Vector    6  Occ=2.000000D+00  E=-9.832517D-01  Symmetry=a1

 Vector    7  Occ=2.000000D+00  E=-5.948305D-01  Symmetry=b1

 Vector    8  Occ=2.000000D+00  E=-4.968985D-01  Symmetry=a1

 Vector    9  Occ=2.000000D+00  E=-3.843927D-01  Symmetry=b2

 Vector   10  Occ=0.000000D+00  E= 9.308727D-02  Symmetry=a1

 Vector   11  Occ=0.000000D+00  E= 1.012015D-01  Symmetry=b1

 Vector   12  Occ=0.000000D+00  E= 1.193725D-01  Symmetry=a1

 Vector   13  Occ=0.000000D+00  E= 1.263096D-01  Symmetry=b2

 Vector   14  Occ=0.000000D+00  E= 1.715873D-01  Symmetry=b1

 Vector   15  Occ=0.000000D+00  E= 2.346975D-01  Symmetry=a1

 Vector   16  Occ=0.000000D+00  E= 3.410235D-01  Symmetry=a1

 Vector   17  Occ=0.000000D+00  E= 3.593769D-01  Symmetry=a2

 Vector   18  Occ=0.000000D+00  E= 3.659305D-01  Symmetry=b2

 Vector   19  Occ=0.000000D+00  E= 4.265772D-01  Symmetry=b1

 Vector   20  Occ=0.000000D+00  E= 4.417925D-01  Symmetry=a1

 Vector   21  Occ=0.000000D+00  E= 7.967846D-01  Symmetry=a1

       Multipole analysis of the density wrt the origin
       ------------------------------------------------

     L   x y z        total         open         nuclear
     -   - - -        -----         ----         -------
     0   0 0 0      0.000000      0.000000     18.000000

     1   1 0 0      0.000000      0.000000      0.000000
     1   0 1 0      0.000000      0.000000      0.000000
     1   0 0 1     -0.461434      0.000000      0.000000

     2   2 0 0     -9.001945      0.000000      6.971063
     2   1 1 0      0.000000      0.000000      0.000000
     2   1 0 1      0.000000      0.000000      0.000000
     2   0 2 0    -12.682474      0.000000      0.000000
     2   0 1 1      0.000000      0.000000      0.000000

 Total times  cpu:        2.2s     wall:        2.5s
