============================== echo of input deck ==============================
#
# These are the comparison numbers directly from Stefan Grimme:
#
#here it is (noFC, spherical basis, for total energies add col_1+0.27*col_2):
#      B2-LYP                unscaled RI-PT2
# He  -2.8937015127         -0.0399725506

echo

start He_b2plyp_cc-vqz

memory total 1000 mb

geometry
 He     0.0 0.0 0.0
end

basis "ao basis" spherical
  * library cc-pvqz
end

mp2
  freeze 0
  scratchdisk 4096
end

dft
  xc HFexch 0.53 becke88 0.47 lyp 0.73 mp2 0.27
  dftmp2 semidirect
  convergence energy 1e-8
  iterations 100
end

task dft energy

dft
  xc HFexch 0.53 becke88 0.47 lyp 0.73 mp2 0.27
  dftmp2 direct
  direct
  convergence energy 1e-8
  iterations 100
end

task dft energy

# This won't reproduce Turbomole exactly because it's not the same basis
# but it should come darn close to the complete DFT result
basis "cc-pVQZ-RI" spherical
#BASIS SET: (5s,4p,3d,2f)
He    S
     29.251976741            1.0000000
He    S
      6.3479959175           1.0000000
He    S
      3.0141166013           1.0000000
He    S
      0.83396087296          1.0000000
He    S
      0.47964730615          1.0000000
He    P
      8.6905135631           1.0000000
He    P
      2.5796767548           1.0000000
He    P
      1.1943303704           1.0000000
He    P
      0.71278867940          1.0000000
He    D
      7.2944834617           1.0000000
He    D
      4.3632208275           1.0000000
He    D
      1.7345900404           1.0000000
He    F
      4.3507069127           1.0000000
He    F
      2.7082979618           1.0000000
end

set "ri-mp2 basis" "cc-pVQZ-RI"

dft
  xc HFexch 0.53 becke88 0.47 lyp 0.73 mp2 0.27
  dftmp2 ri
  convergence energy 1e-8
  iterations 100
end

task dft energy
================================================================================

 Output coordinates in angstroms (scale by  1.889725989 to convert to a.u.)

  No.       Tag          Charge          X              Y              Z
 ---- ---------------- ---------- -------------- -------------- --------------
    1 He                   2.0000     0.00000000     0.00000000     0.00000000

         Total DFT energy =       -2.893701522570

 Vector    1  Occ=2.000000D+00  E=-7.678053D-01

 Vector    2  Occ=0.000000D+00  E= 4.114852D-01

 Vector    3  Occ=0.000000D+00  E= 9.614474D-01

 Vector    4  Occ=0.000000D+00  E= 9.614474D-01

 Vector    5  Occ=0.000000D+00  E= 9.614474D-01

 Vector    6  Occ=0.000000D+00  E= 2.587113D+00

 Vector    7  Occ=0.000000D+00  E= 3.695851D+00

 Vector    8  Occ=0.000000D+00  E= 3.695851D+00

 Vector    9  Occ=0.000000D+00  E= 3.695851D+00

 Vector   10  Occ=0.000000D+00  E= 3.695851D+00

 Vector   11  Occ=0.000000D+00  E= 3.695851D+00

         Total DFT energy =       -2.893701522570

 Vector    1  Occ=2.000000D+00  E=-7.678053D-01

 Vector    2  Occ=0.000000D+00  E= 4.114853D-01

 Vector    3  Occ=0.000000D+00  E= 9.614473D-01

 Vector    4  Occ=0.000000D+00  E= 9.614473D-01

 Vector    5  Occ=0.000000D+00  E= 9.614473D-01

 Vector    6  Occ=0.000000D+00  E= 2.587113D+00

 Vector    7  Occ=0.000000D+00  E= 3.695851D+00

 Vector    8  Occ=0.000000D+00  E= 3.695851D+00

 Vector    9  Occ=0.000000D+00  E= 3.695851D+00

 Vector   10  Occ=0.000000D+00  E= 3.695851D+00

 Vector   11  Occ=0.000000D+00  E= 3.695851D+00

         Total DFT energy =       -2.893701522570

                       DFT Final Molecular Orbital Analysis
                       ------------------------------------

 Vector    1  Occ=2.000000D+00  E=-7.678053D-01

 Vector    2  Occ=0.000000D+00  E= 4.114853D-01

 Vector    3  Occ=0.000000D+00  E= 9.614473D-01

 Vector    4  Occ=0.000000D+00  E= 9.614473D-01

 Vector    5  Occ=0.000000D+00  E= 9.614473D-01

 Vector    6  Occ=0.000000D+00  E= 2.587113D+00

 Vector    7  Occ=0.000000D+00  E= 3.695851D+00

 Vector    8  Occ=0.000000D+00  E= 3.695851D+00

 Vector    9  Occ=0.000000D+00  E= 3.695851D+00

 Vector   10  Occ=0.000000D+00  E= 3.695851D+00

 Vector   11  Occ=0.000000D+00  E= 3.695851D+00

 Total times  cpu:        0.5s     wall:        0.7s
