============================== echo of input deck ==============================
echo
start nh3dimer

title "hessian calculation for (NH3)2 MP2/aug-cc-pVTZ"
# These are the low freq modes from the user 48.1967   62.4202  109.2947

geometry
 symmetry Cs
 N         -0.023231    1.667884    0.000000
 N         -0.023231   -1.566277    0.000000
 H          0.275068    0.696268    0.000000
 H         -1.007619   -1.326674    0.000000
 H          0.392481    2.108669    0.810839
 H          0.392481    2.108669   -0.810839
 H          0.136411   -2.149091    0.812343
 H          0.136411   -2.149091   -0.812343
end

basis spherical
 n   library aug-cc-pvtz
 h   library aug-cc-pvtz
end

mp2
  freeze atomic
  tight
end

task mp2 gradient

mp2
  print none
end

task mp2 freq
================================================================================

 Output coordinates in angstroms (scale by  1.889725989 to convert to a.u.)

  No.       Tag          Charge          X              Y              Z
 ---- ---------------- ---------- -------------- -------------- --------------
    1 N                    7.0000    -0.02323095     1.66788405     0.00000000
    2 N                    7.0000    -0.02323095    -1.56627695     0.00000000
    3 H                    1.0000     0.27506805     0.69626805     0.00000000
    4 H                    1.0000    -1.00761895    -1.32667395     0.00000000
    5 H                    1.0000     0.39248105     2.10866905     0.81083900
    6 H                    1.0000     0.39248105     2.10866905    -0.81083900
    7 H                    1.0000     0.13641105    -2.14909095     0.81234300
    8 H                    1.0000     0.13641105    -2.14909095    -0.81234300

         Total SCF energy =   -112.443024322870

 Vector    2  Occ=2.000000D+00  E=-1.551822D+01  Symmetry=a'

 Vector    3  Occ=2.000000D+00  E=-1.151346D+00  Symmetry=a'

 Vector    4  Occ=2.000000D+00  E=-1.119366D+00  Symmetry=a'

 Vector    5  Occ=2.000000D+00  E=-6.398337D-01  Symmetry=a'

 Vector    6  Occ=2.000000D+00  E=-6.369921D-01  Symmetry=a"

 Vector    7  Occ=2.000000D+00  E=-6.074994D-01  Symmetry=a"

 Vector    8  Occ=2.000000D+00  E=-6.058424D-01  Symmetry=a'

 Vector    9  Occ=2.000000D+00  E=-4.395762D-01  Symmetry=a'

 Vector   10  Occ=2.000000D+00  E=-4.075014D-01  Symmetry=a'

 Vector   11  Occ=0.000000D+00  E= 2.687325D-02  Symmetry=a'

 Vector   12  Occ=0.000000D+00  E= 4.374421D-02  Symmetry=a'

 Vector   13  Occ=0.000000D+00  E= 4.413491D-02  Symmetry=a"

 Vector   14  Occ=0.000000D+00  E= 5.304381D-02  Symmetry=a'

 Vector   15  Occ=0.000000D+00  E= 6.212493D-02  Symmetry=a"

 Vector   16  Occ=0.000000D+00  E= 7.423596D-02  Symmetry=a'

 Vector   17  Occ=0.000000D+00  E= 1.330006D-01  Symmetry=a'

 Vector   18  Occ=0.000000D+00  E= 1.428327D-01  Symmetry=a'

 Vector   19  Occ=0.000000D+00  E= 1.541979D-01  Symmetry=a"

 Vector   20  Occ=0.000000D+00  E= 1.562709D-01  Symmetry=a'

 Vector   21  Occ=0.000000D+00  E= 1.612829D-01  Symmetry=a'

 Vector   22  Occ=0.000000D+00  E= 1.774741D-01  Symmetry=a'

 Vector   23  Occ=0.000000D+00  E= 1.858288D-01  Symmetry=a"

 Vector   24  Occ=0.000000D+00  E= 2.009605D-01  Symmetry=a'

 Vector   25  Occ=0.000000D+00  E= 2.168341D-01  Symmetry=a'

 Vector   26  Occ=0.000000D+00  E= 2.187008D-01  Symmetry=a"

 Vector   27  Occ=0.000000D+00  E= 2.235744D-01  Symmetry=a"

 Vector   28  Occ=0.000000D+00  E= 2.497838D-01  Symmetry=a"

 Vector   29  Occ=0.000000D+00  E= 2.517655D-01  Symmetry=a'

 Vector   30  Occ=0.000000D+00  E= 2.637916D-01  Symmetry=a'

 Vector   31  Occ=0.000000D+00  E= 3.108717D-01  Symmetry=a"

 Vector   32  Occ=0.000000D+00  E= 3.246882D-01  Symmetry=a'

 Vector   33  Occ=0.000000D+00  E= 3.419180D-01  Symmetry=a'

 Vector   34  Occ=0.000000D+00  E= 3.561500D-01  Symmetry=a"

 Vector   35  Occ=0.000000D+00  E= 3.696982D-01  Symmetry=a'

 Vector   36  Occ=0.000000D+00  E= 3.809892D-01  Symmetry=a"

 Vector   37  Occ=0.000000D+00  E= 3.812011D-01  Symmetry=a'

 Vector   38  Occ=0.000000D+00  E= 3.912388D-01  Symmetry=a"

 Vector   39  Occ=0.000000D+00  E= 3.932128D-01  Symmetry=a'

 Vector   40  Occ=0.000000D+00  E= 4.138755D-01  Symmetry=a'

 Vector   41  Occ=0.000000D+00  E= 4.250556D-01  Symmetry=a"

 Vector   42  Occ=0.000000D+00  E= 4.252993D-01  Symmetry=a'

 Vector   43  Occ=0.000000D+00  E= 4.410315D-01  Symmetry=a'

 Vector   44  Occ=0.000000D+00  E= 4.557739D-01  Symmetry=a"

 Vector   45  Occ=0.000000D+00  E= 4.570675D-01  Symmetry=a'

 Vector   46  Occ=0.000000D+00  E= 4.803293D-01  Symmetry=a"

 Vector   47  Occ=0.000000D+00  E= 4.826199D-01  Symmetry=a'

 Vector   48  Occ=0.000000D+00  E= 5.067132D-01  Symmetry=a'

       Multipole analysis of the density wrt the origin
       ------------------------------------------------

     L   x y z        total         open         nuclear
     -   - - -        -----         ----         -------
     0   0 0 0      0.000000      0.000000     20.000000

     1   1 0 0      0.258269      0.000000      0.000000
     1   0 1 0     -0.725917      0.000000      0.000000
     1   0 0 1      0.000000      0.000000      0.000000

     2   2 0 0    -11.913293      0.000000      5.155947
     2   1 1 0      2.478367      0.000000      9.215795
     2   1 0 1      0.000000      0.000000      0.000000
     2   0 2 0     -8.243804      0.000000    203.623630
     2   0 1 1      0.000000      0.000000      0.000000

          Total MP2 energy          -112.926318599756
 Zero-Point correction to Energy  =   44.769 kcal/mol  (  0.071343 au)
 Thermal correction to Energy     =   48.995 kcal/mol  (  0.078079 au)
 Thermal correction to Enthalpy   =   49.588 kcal/mol  (  0.079023 au)
 Total Entropy                    =   76.838 cal/mol-K
   - Translational                =   36.491 cal/mol-K (mol. weight =  34.0531)
   - Rotational                   =   22.044 cal/mol-K (symmetry #  =        1)
   - Vibrational                  =   18.304 cal/mol-K
   - Translational                  =    2.979 cal/mol-K
   - Rotational                     =    2.979 cal/mol-K
   - Vibrational                    =   11.842 cal/mol-K
 P.Frequency        0.00        0.00        0.00        0.00        0.00        0.00
 P.Frequency       48.26       61.58      109.02      141.20      241.42      393.49
 P.Frequency     1059.69     1073.17     1660.57     1670.27     1674.28     1692.46
 P.Frequency     3467.04     3497.01     3609.25     3640.68     3645.46     3646.23

 Normal Eigenvalue ||           Projected Infra Red Intensities
  Mode   [cm**-1]  || [atomic units] [(debye/angs)**2] [(KM/mol)] [arbitrary]
 ------ ---------- || -------------- ----------------- ---------- -----------
    1        0.000 ||    0.000003           0.000         0.003       0.001
    2        0.000 ||    0.000287           0.007         0.280       0.091
    3        0.000 ||    0.004312           0.099         4.204       1.370
    4        0.000 ||    0.000713           0.016         0.696       0.227
    5        0.000 ||    0.000774           0.018         0.754       0.246
    6        0.000 ||    0.001754           0.040         1.710       0.558
    7       48.263 ||    0.002932           0.068         2.858       0.932
    8       61.583 ||    0.097903           2.259        95.440      31.114
    9      109.021 ||    0.047870           1.104        46.666      15.213
   10      141.198 ||    0.021114           0.487        20.583       6.710
   11      241.421 ||    0.044104           1.018        42.995      14.016
   12      393.487 ||    0.036589           0.844        35.668      11.628
   13     1059.688 ||    0.228679           5.276       222.927      72.675
   14     1073.169 ||    0.052077           1.201        50.768      16.550
   15     1660.570 ||    0.014916           0.344        14.541       4.740
   16     1670.275 ||    0.013404           0.309        13.067       4.260
   17     1674.279 ||    0.008171           0.189         7.966       2.597
   18     1692.457 ||    0.008932           0.206         8.708       2.839
   19     3467.038 ||    0.069296           1.599        67.553      22.022
   20     3497.015 ||    0.003910           0.090         3.812       1.243
   21     3609.248 ||    0.068104           1.571        66.391      21.644
   22     3640.682 ||    0.013013           0.300        12.686       4.136
   23     3645.465 ||    0.011039           0.255        10.761       3.508
   24     3646.227 ||    0.005287           0.122         5.154       1.680
 ----------------------------------------------------------------------------

 Total times  cpu:   112678.3s     wall:   185221.1s
