============================== echo of input deck ==============================
echo
start  biphenyl
title "biphenyl"

geometry autoz units au
C     0.00000000     1.41079913     0.00000000
C     2.17443862     2.79058571    -0.73305214
H     3.85903410     1.76970093    -1.35848165
C     2.17523261     5.44408942    -0.73184078
H     3.87369760     6.46581351    -1.32155348
C     0.00000000     6.78473368     0.00000000
H     0.00000000     8.85204277     0.00000000
C    -2.17523261     5.44408942     0.73184078
H    -3.87369760     6.46581351     1.32155348
C    -2.17443862     2.79058571     0.73305214
H    -3.85903410     1.76970093     1.35848165
C     0.00000000    -1.41079913     0.00000000
C    -2.17443862    -2.79058571    -0.73305214
H    -3.85903410    -1.76970093    -1.35848165
C    -2.17523261    -5.44408942    -0.73184078
H    -3.87369760    -6.46581351    -1.32155348
C     0.00000000    -6.78473368     0.00000000
H     0.00000000    -8.85204277     0.00000000
C     2.17523261    -5.44408942     0.73184078
H     3.87369760    -6.46581351     1.32155348
C     2.17443862    -2.79058571     0.73305214
H     3.85903410    -1.76970093     1.35848165
end
basis spherical
  H library 6-31g*
  C library 6-31G*
end
dft
xc becke88 lyp
end
task  dft freq
================================================================================

 Output coordinates in a.u. (scale by  1.000000000 to convert to a.u.)

  No.       Tag          Charge          X              Y              Z
 ---- ---------------- ---------- -------------- -------------- --------------
    1 C                    6.0000     0.00000000    -1.41079913     0.00000000
    2 C                    6.0000     2.17443862    -2.79058571     0.73305214
    3 H                    1.0000     3.85903410    -1.76970093     1.35848165
    4 C                    6.0000     2.17523261    -5.44408942     0.73184078
    5 H                    1.0000     3.87369760    -6.46581351     1.32155348
    6 C                    6.0000     0.00000000    -6.78473368     0.00000000
    7 H                    1.0000     0.00000000    -8.85204277     0.00000000
    8 C                    6.0000    -2.17523261    -5.44408942    -0.73184078
    9 H                    1.0000    -3.87369760    -6.46581351    -1.32155348
   10 C                    6.0000    -2.17443862    -2.79058571    -0.73305214
   11 H                    1.0000    -3.85903410    -1.76970093    -1.35848165
   12 C                    6.0000     0.00000000     1.41079913     0.00000000
   13 C                    6.0000    -2.17443862     2.79058571     0.73305214
   14 H                    1.0000    -3.85903410     1.76970093     1.35848165
   15 C                    6.0000    -2.17523261     5.44408942     0.73184078
   16 H                    1.0000    -3.87369760     6.46581351     1.32155348
   17 C                    6.0000     0.00000000     6.78473368     0.00000000
   18 H                    1.0000     0.00000000     8.85204277     0.00000000
   19 C                    6.0000     2.17523261     5.44408942    -0.73184078
   20 H                    1.0000     3.87369760     6.46581351    -1.32155348
   21 C                    6.0000     2.17443862     2.79058571    -0.73305214
   22 H                    1.0000     3.85903410     1.76970093    -1.35848165

         Total DFT energy =     -463.072484959287

                       DFT Final Molecular Orbital Analysis
                       ------------------------------------

 Vector   13  Occ=2.000000D+00  E=-7.678398D-01

 Vector   14  Occ=2.000000D+00  E=-7.473553D-01

 Vector   15  Occ=2.000000D+00  E=-6.848683D-01

 Vector   16  Occ=2.000000D+00  E=-6.606612D-01

 Vector   17  Occ=2.000000D+00  E=-6.536569D-01

 Vector   18  Occ=2.000000D+00  E=-6.329723D-01

 Vector   19  Occ=2.000000D+00  E=-5.461324D-01

 Vector   20  Occ=2.000000D+00  E=-5.410429D-01

 Vector   21  Occ=2.000000D+00  E=-5.160050D-01

 Vector   22  Occ=2.000000D+00  E=-5.034149D-01

 Vector   23  Occ=2.000000D+00  E=-4.617768D-01

 Vector   24  Occ=2.000000D+00  E=-4.324618D-01

 Vector   25  Occ=2.000000D+00  E=-4.092814D-01

 Vector   26  Occ=2.000000D+00  E=-3.947474D-01

 Vector   27  Occ=2.000000D+00  E=-3.809012D-01

 Vector   28  Occ=2.000000D+00  E=-3.696930D-01

 Vector   29  Occ=2.000000D+00  E=-3.641373D-01

 Vector   30  Occ=2.000000D+00  E=-3.594214D-01

 Vector   31  Occ=2.000000D+00  E=-3.569658D-01

 Vector   32  Occ=2.000000D+00  E=-3.176635D-01

 Vector   33  Occ=2.000000D+00  E=-3.099478D-01

 Vector   34  Occ=2.000000D+00  E=-3.014865D-01

 Vector   35  Occ=2.000000D+00  E=-2.962956D-01

 Vector   36  Occ=2.000000D+00  E=-2.830209D-01

 Vector   37  Occ=2.000000D+00  E=-2.811564D-01

 Vector   38  Occ=2.000000D+00  E=-2.310609D-01

 Vector   39  Occ=2.000000D+00  E=-2.105559D-01

 Vector   40  Occ=2.000000D+00  E=-2.097453D-01

 Vector   41  Occ=2.000000D+00  E=-1.872211D-01

 Vector   42  Occ=0.000000D+00  E=-4.495101D-02

 Vector   43  Occ=0.000000D+00  E=-2.402783D-02

 Vector   44  Occ=0.000000D+00  E=-2.001306D-02

 Vector   45  Occ=0.000000D+00  E= 6.435659D-03

 Vector   46  Occ=0.000000D+00  E= 7.223234D-02

 Vector   47  Occ=0.000000D+00  E= 7.446804D-02

 Vector   48  Occ=0.000000D+00  E= 1.029789D-01

 Vector   49  Occ=0.000000D+00  E= 1.058136D-01

 Vector   50  Occ=0.000000D+00  E= 1.237104D-01

 Vector   51  Occ=0.000000D+00  E= 1.292174D-01

 Vector   52  Occ=0.000000D+00  E= 1.389129D-01

 Vector   53  Occ=0.000000D+00  E= 1.403008D-01

 Vector   54  Occ=0.000000D+00  E= 1.479686D-01

 Vector   55  Occ=0.000000D+00  E= 1.539220D-01

 Vector   56  Occ=0.000000D+00  E= 1.676945D-01

 Vector   57  Occ=0.000000D+00  E= 1.869521D-01

 Vector   58  Occ=0.000000D+00  E= 2.212168D-01

 Vector   59  Occ=0.000000D+00  E= 2.466533D-01

 Vector   60  Occ=0.000000D+00  E= 2.619296D-01

 Vector   61  Occ=0.000000D+00  E= 2.712703D-01

 Vector   62  Occ=0.000000D+00  E= 2.804134D-01

 Vector   63  Occ=0.000000D+00  E= 2.810788D-01

 Vector   64  Occ=0.000000D+00  E= 3.090545D-01

 Vector   65  Occ=0.000000D+00  E= 3.368423D-01

 Vector   66  Occ=0.000000D+00  E= 3.400054D-01

 Vector   67  Occ=0.000000D+00  E= 4.148934D-01

 Vector   68  Occ=0.000000D+00  E= 4.583630D-01

 Vector   69  Occ=0.000000D+00  E= 4.859049D-01

 Vector   70  Occ=0.000000D+00  E= 4.903127D-01

 Vector   71  Occ=0.000000D+00  E= 4.918157D-01

 Vector   72  Occ=0.000000D+00  E= 4.995756D-01

 Vector   73  Occ=0.000000D+00  E= 5.009166D-01

     Multipole analysis of the density
     ---------------------------------

     L   x y z        total         alpha         beta         nuclear
     -   - - -        -----         -----         ----         -------
     0   0 0 0      0.000000    -41.000000    -41.000000     82.000000

     1   1 0 0      0.000000      0.000000      0.000000      0.000000
     1   0 1 0      0.000000      0.000000      0.000000      0.000000
     1   0 0 1      0.000000      0.000000      0.000000      0.000000

     2   2 0 0    -47.081652   -196.854023   -196.854023    346.626394
     2   1 1 0      0.000000      0.000000      0.000000      0.000000
     2   1 0 1      0.000000      0.000000      0.000000      0.000000
     2   0 2 0    -45.841938   -928.400332   -928.400332   1810.958726
     2   0 1 1      0.000000      0.000000      0.000000      0.000000

 Zero-Point correction to Energy  =  110.748 kcal/mol  (  0.176489 au)
 Thermal correction to Energy     =  116.481 kcal/mol  (  0.185624 au)
 Thermal correction to Enthalpy   =  117.073 kcal/mol  (  0.186567 au)
 Total Entropy                    =   91.574 cal/mol-K
   - Translational                =   40.988 cal/mol-K (mol. weight = 154.0782)
   - Rotational                   =   27.729 cal/mol-K (symmetry #  =        4)
   - Vibrational                  =   22.857 cal/mol-K
   - Translational                  =    2.979 cal/mol-K
   - Rotational                     =    2.979 cal/mol-K
   - Vibrational                    =   31.687 cal/mol-K
 P.Frequency        0.00        0.00        0.00        0.00        0.00        0.00
 P.Frequency       68.49       93.22      126.63      261.39      306.68      363.14
 P.Frequency      402.83      409.42      484.50      542.62      607.14      611.86
 P.Frequency      624.16      691.83      691.92      730.94      734.97      769.58
 P.Frequency      829.91      831.40      884.89      900.57      926.74      929.60
 P.Frequency      954.85      955.04      983.70      989.63      995.84     1029.33
 P.Frequency     1041.37     1077.73     1084.16     1164.24     1165.10     1182.39
 P.Frequency     1189.60     1268.02     1283.66     1318.71     1327.62     1340.00
 P.Frequency     1432.85     1460.74     1489.05     1505.87     1566.11     1578.82
 P.Frequency     1593.91     1600.32     3094.05     3094.98     3099.76     3102.62
 P.Frequency     3110.04     3114.36     3115.87     3120.01     3124.89     3126.97

 Normal Eigenvalue ||           Projected Infra Red Intensities
  Mode   [cm**-1]  || [atomic units] [(debye/angs)**2] [(KM/mol)] [arbitrary]
 ------ ---------- || -------------- ----------------- ---------- -----------
    1        0.000 ||    0.000000           0.000         0.000       0.000
    2        0.000 ||    0.000000           0.000         0.000       0.000
    3        0.000 ||    0.000000           0.000         0.000       0.000
    4        0.000 ||    0.000000           0.000         0.000       0.000
    5        0.000 ||    0.000000           0.000         0.000       0.000
    6        0.000 ||    0.000000           0.000         0.000       0.000
    7       68.489 ||    0.000000           0.000         0.000       0.000
    8       93.219 ||    0.000485           0.011         0.472       0.850
    9      126.630 ||    0.000047           0.001         0.046       0.083
   10      261.386 ||    0.000014           0.000         0.014       0.025
   11      306.685 ||    0.000000           0.000         0.000       0.000
   12      363.140 ||    0.000082           0.002         0.080       0.144
   13      402.827 ||    0.000369           0.009         0.360       0.647
   14      409.421 ||    0.000000           0.000         0.000       0.000
   15      484.504 ||    0.003730           0.086         3.636       6.541
   16      542.618 ||    0.001288           0.030         1.256       2.259
   17      607.138 ||    0.008284           0.191         8.076      14.527
   18      611.858 ||    0.000006           0.000         0.006       0.011
   19      624.161 ||    0.000032           0.001         0.031       0.055
   20      691.834 ||    0.005074           0.117         4.946       8.898
   21      691.917 ||    0.025729           0.594        25.082      45.121
   22      730.944 ||    0.064045           1.478        62.435     112.315
   23      734.975 ||    0.000000           0.000         0.000       0.000
   24      769.584 ||    0.004648           0.107         4.531       8.151
   25      829.907 ||    0.000767           0.018         0.748       1.346
   26      831.401 ||    0.000000           0.000         0.000       0.000
   27      884.887 ||    0.002470           0.057         2.408       4.331
   28      900.566 ||    0.000792           0.018         0.772       1.388
   29      926.739 ||    0.000977           0.023         0.952       1.713
   30      929.599 ||    0.000000           0.000         0.000       0.000
   31      954.847 ||    0.000212           0.005         0.206       0.371
   32      955.045 ||    0.000049           0.001         0.047       0.085
   33      983.704 ||    0.000010           0.000         0.010       0.018
   34      989.630 ||    0.000000           0.000         0.000       0.000
   35      995.844 ||    0.005443           0.126         5.306       9.545
   36     1029.333 ||    0.000000           0.000         0.000       0.000
   37     1041.365 ||    0.001610           0.037         1.570       2.823
   38     1077.735 ||    0.005427           0.125         5.290       9.517
   39     1084.165 ||    0.000308           0.007         0.300       0.540
   40     1164.245 ||    0.000003           0.000         0.003       0.005
   41     1165.100 ||    0.000054           0.001         0.053       0.095
   42     1182.393 ||    0.000496           0.011         0.484       0.870
   43     1189.598 ||    0.000000           0.000         0.000       0.000
   44     1268.016 ||    0.000000           0.000         0.000       0.000
   45     1283.655 ||    0.003060           0.071         2.983       5.367
   46     1318.714 ||    0.000008           0.000         0.008       0.014
   47     1327.615 ||    0.000080           0.002         0.078       0.140
   48     1340.002 ||    0.000595           0.014         0.580       1.043
   49     1432.855 ||    0.005206           0.120         5.075       9.130
   50     1460.744 ||    0.000805           0.019         0.785       1.412
   51     1489.051 ||    0.022804           0.526        22.231      39.991
   52     1505.868 ||    0.000000           0.000         0.000       0.000
   53     1566.113 ||    0.003794           0.088         3.699       6.654
   54     1578.821 ||    0.000097           0.002         0.094       0.169
   55     1593.915 ||    0.000000           0.000         0.000       0.000
   56     1600.315 ||    0.011554           0.267        11.264      20.262
   57     3094.052 ||    0.009426           0.217         9.189      16.531
   58     3094.981 ||    0.000000           0.000         0.000       0.000
   59     3099.764 ||    0.000054           0.001         0.053       0.095
   60     3102.625 ||    0.012658           0.292        12.339      22.198
   61     3110.035 ||    0.040714           0.939        39.690      71.400
   62     3114.356 ||    0.000000           0.000         0.000       0.000
   63     3115.874 ||    0.012375           0.285        12.063      21.701
   64     3120.006 ||    0.070501           1.627        68.728     123.636
   65     3124.892 ||    0.050172           1.157        48.910      87.984
   66     3126.971 ||    0.000000           0.000         0.000       0.000
 ----------------------------------------------------------------------------

 Total times  cpu:     6549.1s     wall:     6637.1s
