         Total DFT energy =     -536.091095196212
@ Step       Energy      Delta E   Gmax     Grms     Xrms     Xmax   Walltime
@ ---- ---------------- -------- -------- -------- -------- -------- --------
@    0    -536.09109520  0.0D+00  0.01274  0.00458  0.00000  0.00000    161.1
         Total DFT energy =     -536.088798664055
@    1    -536.08879866  2.3D-03  0.03142  0.00875  0.06439  0.12254    323.9
         Total DFT energy =     -536.091773985023
@    2    -536.09177399 -3.0D-03  0.01159  0.00382  0.02088  0.05804    449.9
         Total DFT energy =     -536.092154803164
@    3    -536.09215480 -3.8D-04  0.00970  0.00284  0.03389  0.09553    583.2
         Total DFT energy =     -536.092548208981
@    4    -536.09254821 -3.9D-04  0.00637  0.00131  0.01331  0.02693    730.7
         Total DFT energy =     -536.092616906770
@    5    -536.09261691 -6.9D-05  0.00187  0.00052  0.00779  0.02501    874.4
         Total DFT energy =     -536.092633230983
@    6    -536.09263323 -1.6D-05  0.00145  0.00031  0.00547  0.01774    991.5
         Total DFT energy =     -536.092637853280
@    7    -536.09263785 -4.6D-06  0.00073  0.00016  0.00177  0.00509   1117.2
         Total DFT energy =     -536.092640373631
@    8    -536.09264037 -2.5D-06  0.00084  0.00015  0.00158  0.00515   1218.2
         Total DFT energy =     -536.092639624378
@    9    -536.09263962  7.5D-07  0.00017  0.00005  0.00087  0.00245   1315.8
         Total DFT energy =     -536.092639841554
@   10    -536.09263984 -2.2D-07  0.00010  0.00002  0.00041  0.00117   1418.7
         Total DFT energy =     -536.092639996345
@   11    -536.09264000 -1.5D-07  0.00003  0.00001  0.00086  0.00303   1522.4
         Total DFT energy =     -536.092640150578
@   12    -536.09264015 -1.5D-07  0.00005  0.00001  0.00133  0.00443   1622.7
         Total DFT energy =     -536.092640105588
@   13    -536.09264011  4.5D-08  0.00004  0.00001  0.00037  0.00141   1741.1
         Total DFT energy =     -536.092640105940

 Vector   18  Occ=2.000000D+00  E=-3.265857D-01

 Vector   19  Occ=2.000000D+00  E=-2.901996D-01

 Vector   20  Occ=2.000000D+00  E=-2.238645D-01

 Vector   21  Occ=2.000000D+00  E=-1.985523D-01

 Vector   22  Occ=0.000000D+00  E=-6.244991D-03

 Vector   23  Occ=0.000000D+00  E= 1.242849D-02

 Vector   24  Occ=0.000000D+00  E= 2.812629D-02

 Vector   25  Occ=0.000000D+00  E= 4.329915D-02

 Vector   26  Occ=0.000000D+00  E= 5.291369D-02

 Vector   27  Occ=0.000000D+00  E= 8.108926D-02

 Vector   28  Occ=0.000000D+00  E= 8.544913D-02

 Vector   29  Occ=0.000000D+00  E= 1.005359D-01

 Vector   30  Occ=0.000000D+00  E= 1.319327D-01

 Vector   31  Occ=0.000000D+00  E= 1.623347D-01

 Vector   32  Occ=0.000000D+00  E= 2.056516D-01

 Vector   33  Occ=0.000000D+00  E= 2.293128D-01

 Vector   34  Occ=0.000000D+00  E= 2.382853D-01

 Vector   35  Occ=0.000000D+00  E= 2.463502D-01

 Vector   36  Occ=0.000000D+00  E= 2.566465D-01

 Vector   37  Occ=0.000000D+00  E= 2.733663D-01

 Vector   38  Occ=0.000000D+00  E= 2.820130D-01

 Vector   39  Occ=0.000000D+00  E= 2.956522D-01

 Vector   40  Occ=0.000000D+00  E= 3.373068D-01

 Vector   41  Occ=0.000000D+00  E= 3.417695D-01

 Vector   42  Occ=0.000000D+00  E= 3.622152D-01

 Vector   43  Occ=0.000000D+00  E= 3.702752D-01

 Vector   44  Occ=0.000000D+00  E= 4.003454D-01

 Vector   45  Occ=0.000000D+00  E= 4.090957D-01

 Vector   46  Occ=0.000000D+00  E= 4.171988D-01

 Vector   47  Occ=0.000000D+00  E= 4.190379D-01

 Vector   48  Occ=0.000000D+00  E= 4.418563D-01

 Vector   49  Occ=0.000000D+00  E= 4.430968D-01

 Vector   50  Occ=0.000000D+00  E= 4.658142D-01

 Vector   51  Occ=0.000000D+00  E= 4.899015D-01

 Vector   52  Occ=0.000000D+00  E= 5.010828D-01

@   14    -536.09264011 -3.5D-10  0.00001  0.00000  0.00016  0.00060   1843.5
         Total DFT energy =     -536.092640134414

                       DFT Final Molecular Orbital Analysis
                       ------------------------------------

 Vector    8  Occ=2.000000D+00  E=-5.720608D+00

 Vector    9  Occ=2.000000D+00  E=-8.469730D-01

 Vector   10  Occ=2.000000D+00  E=-7.317665D-01

 Vector   11  Occ=2.000000D+00  E=-6.345019D-01

 Vector   12  Occ=2.000000D+00  E=-5.529859D-01

 Vector   13  Occ=2.000000D+00  E=-4.684597D-01

 Vector   14  Occ=2.000000D+00  E=-4.326721D-01

 Vector   15  Occ=2.000000D+00  E=-4.045505D-01

 Vector   16  Occ=2.000000D+00  E=-3.793729D-01

 Vector   17  Occ=2.000000D+00  E=-3.420560D-01

 Vector   18  Occ=2.000000D+00  E=-3.265853D-01

 Vector   19  Occ=2.000000D+00  E=-2.902006D-01

 Vector   20  Occ=2.000000D+00  E=-2.238639D-01

 Vector   21  Occ=2.000000D+00  E=-1.985519D-01

 Vector   22  Occ=0.000000D+00  E=-6.246012D-03

 Vector   23  Occ=0.000000D+00  E= 1.242905D-02

 Vector   24  Occ=0.000000D+00  E= 2.812500D-02

 Vector   25  Occ=0.000000D+00  E= 4.329995D-02

 Vector   26  Occ=0.000000D+00  E= 5.291381D-02

 Vector   27  Occ=0.000000D+00  E= 8.108816D-02

 Vector   28  Occ=0.000000D+00  E= 8.544828D-02

 Vector   29  Occ=0.000000D+00  E= 1.005367D-01

 Vector   30  Occ=0.000000D+00  E= 1.319313D-01

 Vector   31  Occ=0.000000D+00  E= 1.623363D-01

 Vector   32  Occ=0.000000D+00  E= 2.056538D-01

 Vector   33  Occ=0.000000D+00  E= 2.293127D-01

 Vector   34  Occ=0.000000D+00  E= 2.382847D-01

 Vector   35  Occ=0.000000D+00  E= 2.463509D-01

 Vector   36  Occ=0.000000D+00  E= 2.566464D-01

 Vector   37  Occ=0.000000D+00  E= 2.733633D-01

 Vector   38  Occ=0.000000D+00  E= 2.820134D-01

 Vector   39  Occ=0.000000D+00  E= 2.956531D-01

 Vector   40  Occ=0.000000D+00  E= 3.373065D-01

 Vector   41  Occ=0.000000D+00  E= 3.417688D-01

 Vector   42  Occ=0.000000D+00  E= 3.622177D-01

 Vector   43  Occ=0.000000D+00  E= 3.702734D-01

 Vector   44  Occ=0.000000D+00  E= 4.003421D-01

 Vector   45  Occ=0.000000D+00  E= 4.090982D-01

 Vector   46  Occ=0.000000D+00  E= 4.171999D-01

 Vector   47  Occ=0.000000D+00  E= 4.190403D-01

 Vector   48  Occ=0.000000D+00  E= 4.418550D-01

 Vector   49  Occ=0.000000D+00  E= 4.430968D-01

 Vector   50  Occ=0.000000D+00  E= 4.658140D-01

 Vector   51  Occ=0.000000D+00  E= 4.899021D-01

 Vector   52  Occ=0.000000D+00  E= 5.010815D-01

     Multipole analysis of the density
     ---------------------------------

     L   x y z        total         alpha         beta         nuclear
     -   - - -        -----         -----         ----         -------
     0   0 0 0      0.000000    -21.000000    -21.000000     42.000000

     1   1 0 0     -0.319254     -0.085656     -0.085656     -0.147943
     1   0 1 0     -1.162679     -0.316582     -0.316582     -0.529515
     1   0 0 1     -0.138420      0.089059      0.089059     -0.316538

     2   2 0 0    -23.711268    -50.027031    -50.027031     76.342795
     2   1 1 0     -0.844844      0.974119      0.974119     -2.793083
     2   1 0 1      0.091183      0.169055      0.169055     -0.246927
     2   0 2 0    -23.942033   -150.933807   -150.933807    277.925580
     2   0 1 1      0.294548      1.630641      1.630641     -2.966734

@   15    -536.09264013 -2.8D-08  0.00000  0.00000  0.00002  0.00006   1935.1
@   15    -536.09264013 -2.8D-08  0.00000  0.00000  0.00002  0.00006   1935.1

 Output coordinates in angstroms (scale by  1.889725989 to convert to a.u.)

  No.       Tag          Charge          X              Y              Z
 ---- ---------------- ---------- -------------- -------------- --------------
    1 N                    7.0000     0.77991220    -1.64939631    -0.13378900
    2 H                    1.0000     1.08885437    -2.42895708     0.42567744
    3 H                    1.0000     0.65505265    -2.01161984    -1.06814000
    4 C                    6.0000    -0.50187712    -1.17622054     0.36473251
    5 H                    1.0000    -1.32742445    -1.88365860     0.20796172
    6 H                    1.0000    -0.40701058    -1.01053456     1.43705170
    7 C                    6.0000    -0.88642868     0.13084527    -0.30004452
    8 H                    1.0000    -0.96995329    -0.00959081    -1.37877739
    9 H                    1.0000    -1.85707994     0.45787958     0.06703343
   10 S                   16.0000     0.26606107     1.48223302     0.05092776
   11 H                    1.0000     1.35274568     0.70857151    -0.12476070

 Total times  cpu:     1852.7s     wall:     1947.9s
