============================== echo of input deck ==============================
Title "QM/MM of Lys monomer"

memory total 1000 Mb

start lys

echo

#task shell "cp lys0.rst lys_em.rst"
prepare
read lys0.rst
write lys_em.rst
end

task prepare

# A basis set must be defined for the QM part

basis "ao basis"
  * library "6-31G*"
end

charge 1.0

dft
 iterations 100
end

md
 system lys_em
 cutoff 1.9   qmmm 1.0
end

qmmm
 eatoms -84
 link_atoms halogen
 region qm
 method bfgs
 maxiter 5
end

task qmmm dft optimize ignore

================================================================================

@ QM/MM Multiple Region Optimization
@ region1:  qm        with bfgs      maxiter =  5
@ ncycle =  1
@ Optimizing qm         region with bfgs
         Total DFT energy =      -84.981422532958
@ Step       Energy      Delta E   Gmax     Grms     Xrms     Xmax   Walltime
@ ---- ---------------- -------- -------- -------- -------- -------- --------
@    0      -0.92752919  0.0D+00  0.12899  0.05414  0.00000  0.00000      4.5
         Total DFT energy =      -85.012485349518
         Total DFT energy =      -85.019243257498
@    1      -0.96131268 -3.4D-02  0.04313  0.02558  0.07133  0.16993      6.8
         Total DFT energy =      -85.032372982570
         Total DFT energy =    -85.032372982570
@    2      -0.97217943 -1.1D-02  0.02201  0.00736  0.05903  0.11259      8.2
         Total DFT energy =      -85.032264424048
         Total DFT energy =    -85.032264424048
@    3      -0.97291042 -7.3D-04  0.01063  0.00553  0.01509  0.03855      9.6
         Total DFT energy =      -85.031929241704

 Vector    1  Occ=2.000000D+00  E=-1.440586D+01

 Vector    2  Occ=2.000000D+00  E=-4.954442D+00

 Vector    3  Occ=2.000000D+00  E=-1.325792D+00

 Vector    4  Occ=2.000000D+00  E=-9.769890D-01

 Vector    5  Occ=2.000000D+00  E=-9.431669D-01

 Vector    6  Occ=2.000000D+00  E=-9.378681D-01

 Vector    7  Occ=2.000000D+00  E=-7.064356D-01

 Vector    8  Occ=2.000000D+00  E=-7.013388D-01

 Vector    9  Occ=0.000000D+00  E=-6.074871D-01

 Vector   10  Occ=0.000000D+00  E=-3.559092D-01

 Vector   11  Occ=0.000000D+00  E=-2.999684D-01

 Vector   12  Occ=0.000000D+00  E=-2.951857D-01

 Vector   13  Occ=0.000000D+00  E= 3.685545D-02

 Vector   14  Occ=0.000000D+00  E= 1.398894D-01

 Vector   15  Occ=0.000000D+00  E= 2.262500D-01

 Vector   16  Occ=0.000000D+00  E= 2.273958D-01

 Vector   17  Occ=0.000000D+00  E= 3.603079D-01

 Vector   18  Occ=0.000000D+00  E= 3.621092D-01

 Vector   19  Occ=0.000000D+00  E= 4.195667D-01

 Vector   20  Occ=0.000000D+00  E= 7.861083D-01

         Total DFT energy =      -85.031582104894

 Vector    1  Occ=2.000000D+00  E=-1.440600D+01

 Vector    2  Occ=2.000000D+00  E=-4.955474D+00

 Vector    3  Occ=2.000000D+00  E=-1.325746D+00

 Vector    4  Occ=2.000000D+00  E=-9.789839D-01

 Vector    5  Occ=2.000000D+00  E=-9.417968D-01

 Vector    6  Occ=2.000000D+00  E=-9.379383D-01

 Vector    7  Occ=2.000000D+00  E=-7.069647D-01

 Vector    8  Occ=2.000000D+00  E=-7.020514D-01

 Vector    9  Occ=0.000000D+00  E=-6.081819D-01

 Vector   10  Occ=0.000000D+00  E=-3.560792D-01

 Vector   11  Occ=0.000000D+00  E=-3.015110D-01

 Vector   12  Occ=0.000000D+00  E=-2.939665D-01

 Vector   13  Occ=0.000000D+00  E= 3.647373D-02

 Vector   14  Occ=0.000000D+00  E= 1.427684D-01

 Vector   15  Occ=0.000000D+00  E= 2.256753D-01

 Vector   16  Occ=0.000000D+00  E= 2.265831D-01

 Vector   17  Occ=0.000000D+00  E= 3.584829D-01

 Vector   18  Occ=0.000000D+00  E= 3.628818D-01

 Vector   19  Occ=0.000000D+00  E= 4.191924D-01

 Vector   20  Occ=0.000000D+00  E= 7.870641D-01

@    4      -0.97353971 -6.3D-04  0.00499  0.00245  0.01889  0.03673     11.5
         Total DFT energy =      -85.031427763771

 Vector    1  Occ=2.000000D+00  E=-1.440587D+01

 Vector    2  Occ=2.000000D+00  E=-4.955411D+00

 Vector    3  Occ=2.000000D+00  E=-1.326675D+00

 Vector    4  Occ=2.000000D+00  E=-9.790082D-01

 Vector    5  Occ=2.000000D+00  E=-9.427784D-01

 Vector    6  Occ=2.000000D+00  E=-9.391540D-01

 Vector    7  Occ=2.000000D+00  E=-7.074608D-01

 Vector    8  Occ=2.000000D+00  E=-7.023097D-01

 Vector    9  Occ=0.000000D+00  E=-6.083447D-01

 Vector   10  Occ=0.000000D+00  E=-3.554783D-01

 Vector   11  Occ=0.000000D+00  E=-3.006830D-01

 Vector   12  Occ=0.000000D+00  E=-2.929916D-01

 Vector   13  Occ=0.000000D+00  E= 3.613716D-02

 Vector   14  Occ=0.000000D+00  E= 1.413885D-01

 Vector   15  Occ=0.000000D+00  E= 2.246059D-01

 Vector   16  Occ=0.000000D+00  E= 2.257321D-01

 Vector   17  Occ=0.000000D+00  E= 3.595239D-01

 Vector   18  Occ=0.000000D+00  E= 3.641495D-01

 Vector   19  Occ=0.000000D+00  E= 4.213438D-01

 Vector   20  Occ=0.000000D+00  E= 7.880447D-01

         Total DFT energy =      -85.030904046257

                       DFT Final Molecular Orbital Analysis
                       ------------------------------------

 Vector    1  Occ=2.000000D+00  E=-1.440557D+01

 Vector    2  Occ=2.000000D+00  E=-4.955276D+00

 Vector    3  Occ=2.000000D+00  E=-1.328897D+00

 Vector    4  Occ=2.000000D+00  E=-9.790370D-01

 Vector    5  Occ=2.000000D+00  E=-9.451705D-01

 Vector    6  Occ=2.000000D+00  E=-9.419986D-01

 Vector    7  Occ=2.000000D+00  E=-7.086452D-01

 Vector    8  Occ=2.000000D+00  E=-7.028989D-01

 Vector    9  Occ=0.000000D+00  E=-6.087398D-01

 Vector   10  Occ=0.000000D+00  E=-3.540967D-01

 Vector   11  Occ=0.000000D+00  E=-2.987808D-01

 Vector   12  Occ=0.000000D+00  E=-2.906912D-01

 Vector   13  Occ=0.000000D+00  E= 3.530869D-02

 Vector   14  Occ=0.000000D+00  E= 1.380835D-01

 Vector   15  Occ=0.000000D+00  E= 2.215356D-01

 Vector   16  Occ=0.000000D+00  E= 2.243748D-01

 Vector   17  Occ=0.000000D+00  E= 3.618968D-01

 Vector   18  Occ=0.000000D+00  E= 3.672917D-01

 Vector   19  Occ=0.000000D+00  E= 4.265007D-01

 Vector   20  Occ=0.000000D+00  E= 7.904297D-01

     Multipole analysis of the density
     ---------------------------------

     L   x y z        total         alpha         beta         nuclear
     -   - - -        -----         -----         ----         -------
     0   0 0 0      1.000000     -8.000000     -8.000000     17.000000

     1   1 0 0     -0.256646     -0.370803     -0.370803      0.484960
     1   0 1 0      5.734685    -42.883617    -42.883617     91.501918
     1   0 0 1      3.096385    -20.179274    -20.179274     43.454933

     2   2 0 0     -6.843498     -7.169117     -7.169117      7.494736
     2   1 1 0     -1.913168      0.210171      0.210171     -2.333511
     2   1 0 1     -1.181823      1.700449      1.700449     -4.582721
     2   0 2 0     27.181665   -240.115720   -240.115720    507.413106
     2   0 1 1     19.060671   -113.284221   -113.284221    245.629112

@    5      -0.97382822 -2.9D-04  0.00806  0.00379  0.01928  0.04107     13.4
@    5      -0.97382822 -2.9D-04  0.00806  0.00379  0.01928  0.04107     13.4

 Output coordinates in angstroms (scale by  1.889725989 to convert to a.u.)

  No.       Tag          Charge          X              Y              Z
 ---- ---------------- ---------- -------------- -------------- --------------
    1 C                    6.0000     0.27405572     2.33373419     0.73725172
    2 N                    7.0000    -0.12786029     3.13851215     1.69815930
    3 H                    1.0000    -0.08489603     2.66570855     2.63017328
    4 H                    1.0000     0.43974991     4.00934623     1.77169557
    5 H                    1.0000    -1.12159226     3.43995434     1.54561599

         Total DFT energy =    -85.030904046257
@ QM/MM Energy
@ quantum energy                      -85.030904046 (-.223249E+06  kjoule/mol)
@ quantum energy adjusted              -1.030904046 (-.270664E+04  kjoule/mol)
@ quantum energy internal             -85.638090262 (-.224843E+06  kjoule/mol)
@ Bq-nuclear energy                     3.532961168 (0.927579E+04  kjoule/mol)
@ Bq-electron energy                   -2.925774952 (-.768162E+04  kjoule/mol)
@ classical energy                      0.057075831 (0.149853E+03  kjoule/mol)
@ total qmmm energy                    -0.973828215 (-.255679E+04  kjoule/mol)
@  OPTIMIZATION FINISHED
 Total times  cpu:       11.8s     wall:       13.4s
