============================== echo of input deck ==============================
Title "QM/MM of Lys monomer"

memory total 1000 Mb

start lys

echo

task shell "cp lys0.rst lys_qmmm.rst"

basis "ao basis"
  O library "6-31G*"
  H library "6-31G*"
  C library "6-31G*"
  N library "6-31G*"
  F library "6-31G*"
end

# There is a net charge on NH3 group
charge 1.0

# Specify any SCF details
dft
 iterations 100
end

driver
clear
maxiter 20
end

md
 system lys_qmmm
 sd 200   init 0.01   min 0.00001   max 0.05
 cutoff 1.9   qmmm 1.8
 memory 15000
end

qmmm
 print debug_info
 eatoms -56
 bq_exclude all
 link_atoms hydrogen
 link_bonds free
 optimization qm
end

set driver:ocheckgrad .true.

task qmmm dft optimize ignore

================================================================================

         Total DFT energy =    -56.381083403627
         Total DFT energy =    -56.380872128228
         Total DFT energy =    -56.381258050060
         Total DFT energy =    -56.381401862085
         Total DFT energy =    -56.380730577547
         Total DFT energy =    -56.381492530968
         Total DFT energy =    -56.380641983564
         Total DFT energy =    -56.381045303996
         Total DFT energy =    -56.380399066196
         Total DFT energy =    -56.381094562400
         Total DFT energy =    -56.381395052732
         Total DFT energy =    -56.380762154728
         Total DFT energy =    -56.380551574125
         Total DFT energy =    -56.381598812191
         Total DFT energy =    -56.380725331057
         Total DFT energy =    -56.381430916137
         Total DFT energy =    -56.380574310418
         Total DFT energy =    -56.381577153196
         Total DFT energy =    -56.381054608702
         Total DFT energy =    -56.380484822883
         Total DFT energy =    -56.380994981060
         Total DFT energy =    -56.381654794481
         Total DFT energy =    -56.380493781099
         Total DFT energy =    -56.380928981613
         Total DFT energy =    -56.381230319247
         Total DFT energy =    -56.381203544799
         Total DFT energy =    -56.380956172956
         Total DFT energy =    -56.381083410718
@ Step       Energy      Delta E   Gmax     Grms     Xrms     Xmax   Walltime
@ ---- ---------------- -------- -------- -------- -------- -------- --------
@    0      -0.31293085  0.0E+00  0.06758  0.04230  0.00000  0.00000    126.5
         Total DFT energy =    -56.399852013059
         Total DFT energy =    -56.399852013059
@    1      -0.33433167 -2.1E-02  0.05384  0.02475  0.08460  0.13516    133.1
         Total DFT energy =    -56.401601171056
         Total DFT energy =    -56.401294796151
@    2      -0.34173943 -7.4E-03  0.01091  0.00530  0.05785  0.08918    144.2
         Total DFT energy =    -56.402239811000
         Total DFT energy =    -56.402045375170
@    3      -0.34194577 -2.1E-04  0.00192  0.00110  0.00689  0.01037    154.2
         Total DFT energy =    -56.402045650093
         Total DFT energy =    -56.402017385063
@    4      -0.34201102 -6.5E-05  0.00621  0.00238  0.00902  0.01605    163.0
         Total DFT energy =    -56.401941015709
         Total DFT energy =    -56.401893235092
@    5      -0.34214300 -1.3E-04  0.00153  0.00084  0.02367  0.04240    172.4
         Total DFT energy =    -56.401883622908
         Total DFT energy =    -56.401852412278
@    6      -0.34219914 -5.6E-05  0.00176  0.00091  0.00768  0.01286    181.3
         Total DFT energy =    -56.401832061304
         Total DFT energy =    -56.401823729496
@    7      -0.34233443 -1.4E-04  0.00383  0.00170  0.04279  0.07457    190.7
         Total DFT energy =    -56.401867309874
         Total DFT energy =    -56.401881390460
@    8      -0.34237553 -4.1E-05  0.00368  0.00192  0.01455  0.02764    200.2
         Total DFT energy =    -56.401939729825
         Total DFT energy =    -56.401960849681
@    9      -0.34244368 -6.8E-05  0.00323  0.00129  0.02042  0.03677    209.6
         Total DFT energy =    -56.401961960794
         Total DFT energy =    -56.401960595848
@   10      -0.34246596 -2.2E-05  0.00079  0.00031  0.00652  0.01063    218.4
         Total DFT energy =    -56.401951831493
         Total DFT energy =    -56.401951831493
@   11      -0.34246783 -1.9E-06  0.00063  0.00026  0.00147  0.00425    223.4
         Total DFT energy =    -56.401933934572
         Total DFT energy =    -56.401926714399
@   12      -0.34247375 -5.9E-06  0.00059  0.00031  0.00641  0.01975    232.2
         Total DFT energy =    -56.401933561725
         Total DFT energy =    -56.401933561725
@   13      -0.34247564 -1.9E-06  0.00058  0.00028  0.00105  0.00164    237.2
         Total DFT energy =    -56.402006678957
         Total DFT energy =    -56.402050248313
@   14      -0.34250065 -2.5E-05  0.00188  0.00089  0.02181  0.04408    247.5
         Total DFT energy =    -56.402039150862
         Total DFT energy =    -56.402030618142

 Vector    6  Occ=0.000000E+00  E=-2.264725E-01

 Vector    7  Occ=0.000000E+00  E=-1.546540E-01

 Vector    8  Occ=0.000000E+00  E=-1.532536E-01

 Vector    9  Occ=0.000000E+00  E=-1.456941E-01

 Vector   10  Occ=0.000000E+00  E= 2.897544E-01

 Vector   11  Occ=0.000000E+00  E= 2.970938E-01

 Vector   12  Occ=0.000000E+00  E= 2.989313E-01

 Vector   13  Occ=0.000000E+00  E= 5.284886E-01

 Vector   14  Occ=0.000000E+00  E= 5.298771E-01

 Vector   15  Occ=0.000000E+00  E= 5.387051E-01

@   15      -0.34254488 -4.4E-05  0.00084  0.00055  0.03246  0.07242    256.3
         Total DFT energy =    -56.401976824685

 Vector    2  Occ=2.000000E+00  E=-1.165111E+00

 Vector    3  Occ=2.000000E+00  E=-7.772285E-01

 Vector    4  Occ=2.000000E+00  E=-7.760608E-01

 Vector    5  Occ=2.000000E+00  E=-7.743355E-01

 Vector    6  Occ=0.000000E+00  E=-2.263028E-01

 Vector    7  Occ=0.000000E+00  E=-1.542511E-01

 Vector    8  Occ=0.000000E+00  E=-1.530411E-01

 Vector    9  Occ=0.000000E+00  E=-1.457423E-01

 Vector   10  Occ=0.000000E+00  E= 2.895204E-01

 Vector   11  Occ=0.000000E+00  E= 2.969125E-01

 Vector   12  Occ=0.000000E+00  E= 2.986832E-01

 Vector   13  Occ=0.000000E+00  E= 5.290347E-01

 Vector   14  Occ=0.000000E+00  E= 5.302016E-01

 Vector   15  Occ=0.000000E+00  E= 5.388524E-01

         Total DFT energy =    -56.401965797247

 Vector    2  Occ=2.000000E+00  E=-1.165173E+00

 Vector    3  Occ=2.000000E+00  E=-7.772243E-01

 Vector    4  Occ=2.000000E+00  E=-7.761064E-01

 Vector    5  Occ=2.000000E+00  E=-7.744345E-01

 Vector    6  Occ=0.000000E+00  E=-2.262712E-01

 Vector    7  Occ=0.000000E+00  E=-1.541589E-01

 Vector    8  Occ=0.000000E+00  E=-1.530088E-01

 Vector    9  Occ=0.000000E+00  E=-1.457586E-01

 Vector   10  Occ=0.000000E+00  E= 2.894570E-01

 Vector   11  Occ=0.000000E+00  E= 2.968936E-01

 Vector   12  Occ=0.000000E+00  E= 2.986443E-01

 Vector   13  Occ=0.000000E+00  E= 5.291557E-01

 Vector   14  Occ=0.000000E+00  E= 5.302519E-01

 Vector   15  Occ=0.000000E+00  E= 5.388729E-01

@   16      -0.34255867 -1.4E-05  0.00042  0.00021  0.02611  0.05402    265.7
         Total DFT energy =    -56.401942739499

 Vector    2  Occ=2.000000E+00  E=-1.165329E+00

 Vector    3  Occ=2.000000E+00  E=-7.773771E-01

 Vector    4  Occ=2.000000E+00  E=-7.762536E-01

 Vector    5  Occ=2.000000E+00  E=-7.745101E-01

 Vector    6  Occ=0.000000E+00  E=-2.261815E-01

 Vector    7  Occ=0.000000E+00  E=-1.540957E-01

 Vector    8  Occ=0.000000E+00  E=-1.528246E-01

 Vector    9  Occ=0.000000E+00  E=-1.457210E-01

 Vector   10  Occ=0.000000E+00  E= 2.894988E-01

 Vector   11  Occ=0.000000E+00  E= 2.967487E-01

 Vector   12  Occ=0.000000E+00  E= 2.984290E-01

 Vector   13  Occ=0.000000E+00  E= 5.292661E-01

 Vector   14  Occ=0.000000E+00  E= 5.305289E-01

 Vector   15  Occ=0.000000E+00  E= 5.390074E-01

         Total DFT energy =    -56.401942739499
@   17      -0.34255940 -7.3E-07  0.00013  0.00008  0.00142  0.00253    271.1
         Total DFT energy =    -56.401952109644

 Vector    2  Occ=2.000000E+00  E=-1.165277E+00

 Vector    3  Occ=2.000000E+00  E=-7.773800E-01

 Vector    4  Occ=2.000000E+00  E=-7.762074E-01

 Vector    5  Occ=2.000000E+00  E=-7.744344E-01

 Vector    6  Occ=0.000000E+00  E=-2.262084E-01

 Vector    7  Occ=0.000000E+00  E=-1.541789E-01

 Vector    8  Occ=0.000000E+00  E=-1.528465E-01

 Vector    9  Occ=0.000000E+00  E=-1.457077E-01

 Vector   10  Occ=0.000000E+00  E= 2.895518E-01

 Vector   11  Occ=0.000000E+00  E= 2.967983E-01

 Vector   12  Occ=0.000000E+00  E= 2.984278E-01

 Vector   13  Occ=0.000000E+00  E= 5.291503E-01

 Vector   14  Occ=0.000000E+00  E= 5.304978E-01

 Vector   15  Occ=0.000000E+00  E= 5.389923E-01

         Total DFT energy =    -56.401952109644
@   18      -0.34255953 -1.3E-07  0.00012  0.00007  0.00270  0.00493    276.0
         Total DFT energy =    -56.401948769508

                       DFT Final Molecular Orbital Analysis
                       ------------------------------------

 Vector    2  Occ=2.000000E+00  E=-1.165290E+00

 Vector    3  Occ=2.000000E+00  E=-7.773781E-01

 Vector    4  Occ=2.000000E+00  E=-7.762205E-01

 Vector    5  Occ=2.000000E+00  E=-7.744511E-01

 Vector    6  Occ=0.000000E+00  E=-2.261947E-01

 Vector    7  Occ=0.000000E+00  E=-1.541482E-01

 Vector    8  Occ=0.000000E+00  E=-1.528331E-01

 Vector    9  Occ=0.000000E+00  E=-1.457049E-01

 Vector   10  Occ=0.000000E+00  E= 2.895479E-01

 Vector   11  Occ=0.000000E+00  E= 2.967785E-01

 Vector   12  Occ=0.000000E+00  E= 2.984205E-01

 Vector   13  Occ=0.000000E+00  E= 5.291955E-01

 Vector   14  Occ=0.000000E+00  E= 5.305189E-01

 Vector   15  Occ=0.000000E+00  E= 5.390087E-01

     Multipole analysis of the density
     ---------------------------------

     L   x y z        total         alpha         beta         nuclear
     -   - - -        -----         -----         ----         -------
     0   0 0 0      1.000000     -5.000000     -5.000000     11.000000

     1   1 0 0     -0.186944      0.953808      0.953808     -2.094560
     1   0 1 0      6.097379    -30.456377    -30.456377     67.010134
     1   0 0 1      3.318371    -16.588470    -16.588470     36.495311

     2   2 0 0     -3.202842     -4.300987     -4.300987      5.399133
     2   1 1 0     -1.125643      5.801373      5.801373    -12.728390
     2   1 0 1     -0.584255      3.148100      3.148100     -6.880455
     2   0 2 0     33.894796   -189.618156   -189.618156    413.131107
     2   0 1 1     20.173726   -101.016879   -101.016879    222.207485

         Total DFT energy =    -56.401948769508
@   19      -0.34255965 -1.2E-07  0.00011  0.00005  0.00027  0.00048    280.4
@   19      -0.34255965 -1.2E-07  0.00011  0.00005  0.00027  0.00048    280.4

 Output coordinates in angstroms (scale by  1.889725989 to convert to a.u.)

  No.       Tag          Charge          X              Y              Z
 ---- ---------------- ---------- -------------- -------------- --------------
    1 N                    7.0000    -0.10168537     3.22300284     1.75611704
    2 H                    1.0000     0.09212513     2.77332634     2.65441312
    3 H                    1.0000     0.41871150     4.10342290     1.69062668
    4 H                    1.0000    -1.10333485     3.40480299     1.65721346

 Total times  cpu:      266.3s     wall:      280.4s
