============================== echo of input deck ==============================
echo

start mcscf_ozone

geometry units au noprint  # 3-21g RHF singlet optimized geometry
  symmetry c2v
  O       0.000000   0.000000  -0.769844
  O       0.000000   1.961067   0.384922
end

basis noprint
  O library 6-31g*
end

title "case s8: Ozone --- ROHF triplet SCF energy with symmetry"
scf; print low; triplet; end
task scf

title "cas mc1: Ozone --- MCSCF triplet 6e in 6 analytic gradients with symmetry"
mcscf; active 6; actelec 6; state 3B2 ; end
task mcscf gradient

title "cas mc2: Ozone --- MCSCF triplet 6e in 6 numerical gradients with symmetry"
mcscf; print none; end
task mcscf gradient numerical
================================================================================

         Total SCF energy =   -224.209154766232

 Vector    1  Occ=2.000000D+00  E=-2.075062D+01  Symmetry=a1

 Vector    2  Occ=2.000000D+00  E=-2.069756D+01  Symmetry=b2

 Vector    3  Occ=2.000000D+00  E=-2.069754D+01  Symmetry=a1

 Vector    4  Occ=2.000000D+00  E=-1.462957D+00  Symmetry=a1

 Vector    5  Occ=2.000000D+00  E=-1.258667D+00  Symmetry=b2

 Vector    6  Occ=2.000000D+00  E=-1.020452D+00  Symmetry=a1

 Vector    7  Occ=2.000000D+00  E=-7.790443D-01  Symmetry=b1

 Vector    8  Occ=2.000000D+00  E=-6.393636D-01  Symmetry=a1

 Vector    9  Occ=2.000000D+00  E=-5.864138D-01  Symmetry=b2

 Vector   10  Occ=1.976096D+00  E=-1.034123D+00  Symmetry=a1

 Vector   11  Occ=1.975948D+00  E=-9.853863D-01  Symmetry=b2

 Vector   12  Occ=1.000378D+00  E=-3.553531D-01  Symmetry=a2

 Vector   13  Occ=9.996226D-01  E=-2.606132D-01  Symmetry=b1

 Vector   14  Occ=2.718048D-02  E=-2.904668D-02  Symmetry=a1

 Vector   15  Occ=2.077388D-02  E=-2.225168D-02  Symmetry=b2

 Vector   16  Occ=0.000000D+00  E= 8.025260D-01  Symmetry=a1

 Vector   17  Occ=0.000000D+00  E= 8.471710D-01  Symmetry=b2

 Vector   18  Occ=0.000000D+00  E= 8.793524D-01  Symmetry=a1

 Vector   19  Occ=0.000000D+00  E= 1.044387D+00  Symmetry=b1

 Vector   20  Occ=0.000000D+00  E= 1.049962D+00  Symmetry=a1

 Vector   21  Occ=0.000000D+00  E= 1.107992D+00  Symmetry=b2

 Vector   22  Occ=0.000000D+00  E= 1.158290D+00  Symmetry=a2

 Vector   23  Occ=0.000000D+00  E= 1.176505D+00  Symmetry=a1

 Vector   24  Occ=0.000000D+00  E= 1.213939D+00  Symmetry=b1

 Vector   25  Occ=0.000000D+00  E= 1.235740D+00  Symmetry=b2

     Multipole analysis of the density
     ---------------------------------

     L   x y z        total        nuclear
     -   - - -        -----        -------
     0   0 0 0      0.000000     24.000000

     1   1 0 0      0.000000      0.000000
     1   0 1 0      0.000000      0.000000
     1   0 0 1     -0.001239      0.000000

     2   2 0 0    -10.341401      0.000000
     2   1 1 0      0.000000      0.000000
     2   1 0 1      0.000000      0.000000
     2   0 2 0    -12.072030     61.532540
     2   0 1 1      0.000000      0.000000

 Total times  cpu:       24.0s     wall:       32.8s
