         Total SCF energy =   -581.371364240054

 Vector  159  Occ=0.000000D+00  E= 1.895999D+00  Symmetry=a1u

 Vector  160  Occ=0.000000D+00  E= 1.929207D+00  Symmetry=a1g

 Vector  161  Occ=0.000000D+00  E= 1.962674D+00  Symmetry=eu

 Vector  162  Occ=0.000000D+00  E= 1.962674D+00  Symmetry=eu

 Vector  163  Occ=0.000000D+00  E= 1.963632D+00  Symmetry=eg

 Vector  164  Occ=0.000000D+00  E= 1.963632D+00  Symmetry=eg

 Vector  165  Occ=0.000000D+00  E= 1.976601D+00  Symmetry=a2u

 Vector  166  Occ=0.000000D+00  E= 2.064862D+00  Symmetry=a2g

 Vector  167  Occ=0.000000D+00  E= 2.078084D+00  Symmetry=eg

 Vector  168  Occ=0.000000D+00  E= 2.078084D+00  Symmetry=eg

 Vector  169  Occ=0.000000D+00  E= 2.088175D+00  Symmetry=eu

 Vector  170  Occ=0.000000D+00  E= 2.088175D+00  Symmetry=eu

 Vector  171  Occ=0.000000D+00  E= 2.121001D+00  Symmetry=a2u

 Vector  172  Occ=0.000000D+00  E= 2.222408D+00  Symmetry=eg

 Vector  173  Occ=0.000000D+00  E= 2.222408D+00  Symmetry=eg

 Vector  174  Occ=0.000000D+00  E= 2.228057D+00  Symmetry=eu

 Vector  175  Occ=0.000000D+00  E= 2.228057D+00  Symmetry=eu

 Vector  176  Occ=0.000000D+00  E= 2.229438D+00  Symmetry=a1g

 Vector  177  Occ=0.000000D+00  E= 3.045187D+00  Symmetry=eg

 Vector  178  Occ=0.000000D+00  E= 3.045187D+00  Symmetry=eg

 Vector  179  Occ=0.000000D+00  E= 3.086977D+00  Symmetry=eu

 Vector  180  Occ=0.000000D+00  E= 3.086977D+00  Symmetry=eu

 Vector  181  Occ=0.000000D+00  E= 3.100879D+00  Symmetry=a1g

 Vector  182  Occ=0.000000D+00  E= 3.352195D+00  Symmetry=a2u

 Vector  183  Occ=0.000000D+00  E= 3.427317D+00  Symmetry=a1g

 Vector  184  Occ=0.000000D+00  E= 3.625621D+00  Symmetry=eu

 Vector  185  Occ=0.000000D+00  E= 3.625621D+00  Symmetry=eu

 Vector  186  Occ=0.000000D+00  E= 3.641774D+00  Symmetry=eg

 Vector  187  Occ=0.000000D+00  E= 3.641774D+00  Symmetry=eg

 Vector  188  Occ=0.000000D+00  E= 3.656010D+00  Symmetry=a2u

 Vector  189  Occ=0.000000D+00  E= 3.956654D+00  Symmetry=eg

 Vector  190  Occ=0.000000D+00  E= 3.956654D+00  Symmetry=eg

 Vector  191  Occ=0.000000D+00  E= 3.974392D+00  Symmetry=a2g

 Vector  192  Occ=0.000000D+00  E= 3.995512D+00  Symmetry=a1u

 Vector  193  Occ=0.000000D+00  E= 4.057836D+00  Symmetry=eu

 Vector  194  Occ=0.000000D+00  E= 4.057836D+00  Symmetry=eu

 Vector  195  Occ=0.000000D+00  E= 4.059265D+00  Symmetry=a1g

 Vector  196  Occ=0.000000D+00  E= 4.092435D+00  Symmetry=a2u

 Vector  197  Occ=0.000000D+00  E= 4.107457D+00  Symmetry=eu

 Vector  198  Occ=0.000000D+00  E= 4.107457D+00  Symmetry=eu

 Vector  199  Occ=0.000000D+00  E= 4.124527D+00  Symmetry=eg

 Vector  200  Occ=0.000000D+00  E= 4.124527D+00  Symmetry=eg

 Vector  201  Occ=0.000000D+00  E= 4.138098D+00  Symmetry=eg

 Vector  202  Occ=0.000000D+00  E= 4.138098D+00  Symmetry=eg

 Vector  203  Occ=0.000000D+00  E= 4.146871D+00  Symmetry=eu

 Vector  204  Occ=0.000000D+00  E= 4.146871D+00  Symmetry=eu

 Vector  205  Occ=0.000000D+00  E= 4.188232D+00  Symmetry=a2u

 Vector  206  Occ=0.000000D+00  E= 4.200086D+00  Symmetry=a1g

 Vector  207  Occ=0.000000D+00  E= 4.204728D+00  Symmetry=a1u

 Vector  208  Occ=0.000000D+00  E= 4.247838D+00  Symmetry=eg

 Vector  209  Occ=0.000000D+00  E= 4.247838D+00  Symmetry=eg

 Vector  210  Occ=0.000000D+00  E= 4.277642D+00  Symmetry=eu

 Vector  211  Occ=0.000000D+00  E= 4.277642D+00  Symmetry=eu

 Vector  212  Occ=0.000000D+00  E= 4.299143D+00  Symmetry=a2g

 Vector  213  Occ=0.000000D+00  E= 4.359103D+00  Symmetry=a2u

 Vector  214  Occ=0.000000D+00  E= 4.371344D+00  Symmetry=a1g

 Vector  215  Occ=0.000000D+00  E= 4.424720D+00  Symmetry=a1u

 Vector  216  Occ=0.000000D+00  E= 4.532594D+00  Symmetry=eg

 Vector  217  Occ=0.000000D+00  E= 4.532594D+00  Symmetry=eg

 Vector  218  Occ=0.000000D+00  E= 4.545667D+00  Symmetry=eu

 Vector  219  Occ=0.000000D+00  E= 4.545667D+00  Symmetry=eu

 Vector  220  Occ=0.000000D+00  E= 4.561360D+00  Symmetry=a1g

 Vector  221  Occ=0.000000D+00  E= 4.585499D+00  Symmetry=a2g

 Vector  222  Occ=0.000000D+00  E= 4.671470D+00  Symmetry=eu

 Vector  223  Occ=0.000000D+00  E= 4.671470D+00  Symmetry=eu

 Vector  224  Occ=0.000000D+00  E= 4.681667D+00  Symmetry=eg

 Vector  225  Occ=0.000000D+00  E= 4.681667D+00  Symmetry=eg

 Vector  226  Occ=0.000000D+00  E= 4.727654D+00  Symmetry=a2u

 Vector  227  Occ=0.000000D+00  E= 4.775708D+00  Symmetry=eu

 Vector  228  Occ=0.000000D+00  E= 4.775708D+00  Symmetry=eu

 Vector  229  Occ=0.000000D+00  E= 4.784967D+00  Symmetry=eg

 Vector  230  Occ=0.000000D+00  E= 4.784967D+00  Symmetry=eg

 Vector  231  Occ=0.000000D+00  E= 4.921840D+00  Symmetry=a1g

 Vector  232  Occ=0.000000D+00  E= 4.987021D+00  Symmetry=a2u

 Vector  233  Occ=0.000000D+00  E= 5.093400D+00  Symmetry=eu

 Vector  234  Occ=0.000000D+00  E= 5.093400D+00  Symmetry=eu

 Vector  235  Occ=0.000000D+00  E= 5.171962D+00  Symmetry=eg

 Vector  236  Occ=0.000000D+00  E= 5.171962D+00  Symmetry=eg

 Vector  237  Occ=0.000000D+00  E= 7.819803D+00  Symmetry=a1g

 Vector  238  Occ=0.000000D+00  E= 8.417618D+00  Symmetry=a2u

 Output coordinates in angstroms (scale by  1.889725989 to convert to a.u.)

  No.       Tag          Charge          X              Y              Z
 ---- ---------------- ---------- -------------- -------------- --------------
    1 Si                  14.0000     0.00000000     0.00000000     1.18142400
    2 Si                  14.0000     0.00000000     0.00000000    -1.18142400
    3 H                    1.0000     0.99031200    -0.99031200     1.69469400
    4 H                    1.0000     0.36247935     1.35279135     1.69469400
    5 H                    1.0000    -1.35279135    -0.36247935     1.69469400
    6 H                    1.0000    -0.99031200     0.99031200    -1.69469400
    7 H                    1.0000     1.35279135     0.36247935    -1.69469400
    8 H                    1.0000    -0.36247935    -1.35279135    -1.69469400

          Total MP2 energy          -581.640805122702
 Total times  cpu:    91299.2s     wall:   115337.7s
