============================== echo of input deck ==============================
#
# Test for CC, CI, MBPT codes in the TCE module
# Reference data obtained by an independent determinantal CC, CI, MBPT code are
#
# LCCD   -0.0505753360
# LCCSD  -0.0508915694
# CCD    -0.0498521356
# CCSD   -0.0501273286
# CCSDT  -0.0502322580
# CCSDTQ -0.0502556616
# QCISD  -0.0501452655
# CISD   -0.0495138383
# CISDT  -0.0496160908
# CISDTQ -0.0502556615
# MBPT2  -0.0358672469
# MBPT3  -0.0098015863
# MBPT4  -0.0030104405
#
# in units of hartree.
#
start h2o

memory  1500 mb

echo

geometry units bohr
O      0.000000000000     0.000000000000    -0.123909374404
H      0.000000000000     1.429936611037     0.983265845431
H      0.000000000000    -1.429936611037     0.983265845431
symmetry c1
end

basis
* library cc-pvdz
end

scf
thresh 1.0e-10
tol2e 1.0e-10
singlet
rhf
end

tce
mp4(sdq)
end

task tce energy
================================================================================

 Output coordinates in a.u. (scale by  1.000000000 to convert to a.u.)

  No.       Tag          Charge          X              Y              Z
 ---- ---------------- ---------- -------------- -------------- --------------
    1 O                    8.0000     0.00000000     0.00000000    -0.22143504
    2 H                    1.0000     0.00000000     1.42993661     0.88574018
    3 H                    1.0000     0.00000000    -1.42993661     0.88574018

         Total SCF energy =    -76.027148596073

 Vector    2  Occ=2.000000E+00  E=-1.337094E+00

 Vector    3  Occ=2.000000E+00  E=-6.997070E-01

 Vector    4  Occ=2.000000E+00  E=-5.669530E-01

 Vector    5  Occ=2.000000E+00  E=-4.935359E-01

 Vector    6  Occ=0.000000E+00  E= 1.834127E-01

 Vector    7  Occ=0.000000E+00  E= 2.561535E-01

 Vector    8  Occ=0.000000E+00  E= 7.892712E-01

 Vector    9  Occ=0.000000E+00  E= 8.545535E-01

 Vector   10  Occ=0.000000E+00  E= 1.158987E+00

 Vector   11  Occ=0.000000E+00  E= 1.200041E+00

 Vector   12  Occ=0.000000E+00  E= 1.253035E+00

 Vector   13  Occ=0.000000E+00  E= 1.423408E+00

 Vector   14  Occ=0.000000E+00  E= 1.476226E+00

 Vector   15  Occ=0.000000E+00  E= 1.674473E+00

       Multipole analysis of the density wrt the origin
       ------------------------------------------------

     L   x y z        total         open         nuclear
     -   - - -        -----         ----         -------
     0   0 0 0      0.000000      0.000000     10.000000

     1   1 0 0      0.000000      0.000000      0.000000
     1   0 1 0      0.000000      0.000000      0.000000
     1   0 0 1      0.809143      0.000000      0.000000

     2   2 0 0     -5.228889      0.000000      0.000000
     2   1 1 0      0.000000      0.000000      0.000000
     2   1 0 1      0.000000      0.000000      0.000000
     2   0 2 0     -3.072470      0.000000      4.089437
     2   0 1 1      0.000000      0.000000      0.000000

 Total times  cpu:        3.0s     wall:        3.4s
