============================== echo of input deck ==============================
echo
start o2_bnl

geometry units angstrom
O        0.0000000000      0.0000000000      0.60066850000
O        0.0000000000      0.0000000000     -0.60066850000
symmetry c1
end

basis spherical
 * library "cc-pVTZ"
end

BASIS "cd basis" print
O    S
          9.57843253E+02         0.56249624
          2.81967425E+02         1.49108985
          9.01998320E+01         3.86547733
O    S
          3.11382990E+01         3.60577725
O    S
          1.14937320E+01         0.23005858
O    S
          4.48404900E+00        -0.05015769
O    S
          1.82350400E+00         1.05070463
O    S
          7.60903000E-01         0.58565488
O    S
          3.20292000E-01         0.07499129
O    P
          6.14708863E-01        -0.08557844
O    P
          1.47530127E+00         0.04179996
O    P
          3.69562968E+00        -0.05855108
O    D
          7.65267200E+00         0.09106873
O    D
          2.21786800E+00         0.11163134
O    D
          6.82337000E-01         0.04600666
O    F
          2.19178082E+00         1.00000000
END

set int:cando_txs f

dft
 xc xbnl07 0.90 lyp 1.00 hfexch 1.00
 cam 0.5 cam_alpha 0.0 cam_beta 1.0
 odft
 mult 3
end
task dft energy

driver
 maxiter 100
end

task dft optimize
================================================================================

         Total DFT energy =     -147.994422470688

 Vector   16  Occ=0.000000D+00  E= 7.765147D-01

 Vector   17  Occ=0.000000D+00  E= 8.224973D-01

 Vector   18  Occ=0.000000D+00  E= 1.373510D+00

 Vector   19  Occ=0.000000D+00  E= 1.386730D+00

         Total DFT energy =   -147.994422470688
@ Step       Energy      Delta E   Gmax     Grms     Xrms     Xmax   Walltime
@ ---- ---------------- -------- -------- -------- -------- -------- --------
@    0    -147.99442247  0.0D+00  0.00054  0.00054  0.00000  0.00000      5.4
         Total DFT energy =     -147.994422441908

 Vector    1  Occ=1.000000D+00  E=-1.883234D+01

 Vector    2  Occ=1.000000D+00  E=-1.883217D+01

 Vector    3  Occ=1.000000D+00  E=-1.453984D+00

 Vector    4  Occ=1.000000D+00  E=-9.633630D-01

 Vector    5  Occ=1.000000D+00  E=-7.088617D-01

 Vector    6  Occ=1.000000D+00  E=-7.088617D-01

 Vector    7  Occ=1.000000D+00  E=-6.838205D-01

 Vector    8  Occ=1.000000D+00  E=-4.326783D-01

 Vector    9  Occ=1.000000D+00  E=-4.326783D-01

 Vector   10  Occ=0.000000D+00  E= 3.264057D-01

 Vector   11  Occ=0.000000D+00  E= 6.256693D-01

 Vector   12  Occ=0.000000D+00  E= 6.256693D-01

 Vector   13  Occ=0.000000D+00  E= 6.304897D-01

 Vector   14  Occ=0.000000D+00  E= 6.680930D-01

 Vector   15  Occ=0.000000D+00  E= 7.411154D-01

 Vector   16  Occ=0.000000D+00  E= 7.411154D-01

 Vector   17  Occ=0.000000D+00  E= 8.020494D-01

 Vector   18  Occ=0.000000D+00  E= 1.344727D+00

 Vector   19  Occ=0.000000D+00  E= 1.351365D+00

 Vector    1  Occ=1.000000D+00  E=-1.880478D+01

 Vector    2  Occ=1.000000D+00  E=-1.880455D+01

 Vector    3  Occ=1.000000D+00  E=-1.408370D+00

 Vector    4  Occ=1.000000D+00  E=-8.775416D-01

 Vector    5  Occ=1.000000D+00  E=-6.439339D-01

 Vector    6  Occ=1.000000D+00  E=-6.025605D-01

 Vector    7  Occ=1.000000D+00  E=-6.025605D-01

 Vector    8  Occ=0.000000D+00  E= 1.921494D-02

 Vector    9  Occ=0.000000D+00  E= 1.921494D-02

 Vector   10  Occ=0.000000D+00  E= 3.568579D-01

 Vector   11  Occ=0.000000D+00  E= 6.516674D-01

 Vector   12  Occ=0.000000D+00  E= 6.516674D-01

 Vector   13  Occ=0.000000D+00  E= 6.565109D-01

 Vector   14  Occ=0.000000D+00  E= 6.765732D-01

 Vector   15  Occ=0.000000D+00  E= 7.764623D-01

 Vector   16  Occ=0.000000D+00  E= 7.764623D-01

 Vector   17  Occ=0.000000D+00  E= 8.225034D-01

 Vector   18  Occ=0.000000D+00  E= 1.373569D+00

 Vector   19  Occ=0.000000D+00  E= 1.386885D+00

         Total DFT energy =   -147.994422441908
@    1    -147.99442244  2.9D-08  0.00059  0.00059  0.00034  0.00059      9.7
         Total DFT energy =     -147.994422624844

                    DFT Final Alpha Molecular Orbital Analysis
                    ------------------------------------------

 Vector    1  Occ=1.000000D+00  E=-1.883218D+01

 Vector    2  Occ=1.000000D+00  E=-1.883201D+01

 Vector    3  Occ=1.000000D+00  E=-1.454168D+00

 Vector    4  Occ=1.000000D+00  E=-9.632258D-01

 Vector    5  Occ=1.000000D+00  E=-7.089217D-01

 Vector    6  Occ=1.000000D+00  E=-7.089217D-01

 Vector    7  Occ=1.000000D+00  E=-6.838265D-01

 Vector    8  Occ=1.000000D+00  E=-4.325231D-01

 Vector    9  Occ=1.000000D+00  E=-4.325231D-01

 Vector   10  Occ=0.000000D+00  E= 3.267600D-01

 Vector   11  Occ=0.000000D+00  E= 6.256619D-01

 Vector   12  Occ=0.000000D+00  E= 6.256619D-01

 Vector   13  Occ=0.000000D+00  E= 6.306981D-01

 Vector   14  Occ=0.000000D+00  E= 6.680534D-01

 Vector   15  Occ=0.000000D+00  E= 7.411446D-01

 Vector   16  Occ=0.000000D+00  E= 7.411446D-01

 Vector   17  Occ=0.000000D+00  E= 8.020608D-01

 Vector   18  Occ=0.000000D+00  E= 1.344719D+00

 Vector   19  Occ=0.000000D+00  E= 1.351308D+00

 Vector    1  Occ=1.000000D+00  E=-1.880462D+01

 Vector    2  Occ=1.000000D+00  E=-1.880438D+01

 Vector    3  Occ=1.000000D+00  E=-1.408559D+00

 Vector    4  Occ=1.000000D+00  E=-8.774051D-01

 Vector    5  Occ=1.000000D+00  E=-6.439322D-01

 Vector    6  Occ=1.000000D+00  E=-6.026370D-01

 Vector    7  Occ=1.000000D+00  E=-6.026370D-01

 Vector    8  Occ=0.000000D+00  E= 1.938596D-02

 Vector    9  Occ=0.000000D+00  E= 1.938596D-02

 Vector   10  Occ=0.000000D+00  E= 3.571764D-01

 Vector   11  Occ=0.000000D+00  E= 6.516537D-01

 Vector   12  Occ=0.000000D+00  E= 6.516537D-01

 Vector   13  Occ=0.000000D+00  E= 6.567654D-01

 Vector   14  Occ=0.000000D+00  E= 6.765306D-01

 Vector   15  Occ=0.000000D+00  E= 7.765039D-01

 Vector   16  Occ=0.000000D+00  E= 7.765039D-01

 Vector   17  Occ=0.000000D+00  E= 8.225162D-01

 Vector   18  Occ=0.000000D+00  E= 1.373551D+00

 Vector   19  Occ=0.000000D+00  E= 1.386822D+00

     Multipole analysis of the density
     ---------------------------------

     L   x y z        total         alpha         beta         nuclear
     -   - - -        -----         -----         ----         -------
     0   0 0 0      0.000000     -9.000000     -7.000000     16.000000

     1   1 0 0      0.000000      0.000000      0.000000      0.000000
     1   0 1 0      0.000000      0.000000      0.000000      0.000000
     1   0 0 1      0.000000      0.000000      0.000000      0.000000

     2   2 0 0     -7.611443     -4.435503     -3.175941      0.000000
     2   1 1 0      0.000000      0.000000      0.000000      0.000000
     2   1 0 1      0.000000      0.000000      0.000000      0.000000
     2   0 2 0     -7.611443     -4.435503     -3.175941      0.000000
     2   0 1 1      0.000000      0.000000      0.000000      0.000000

         Total DFT energy =   -147.994422624844
@    2    -147.99442262 -1.8D-07  0.00003  0.00003  0.00018  0.00031     13.9
@    2    -147.99442262 -1.8D-07  0.00003  0.00003  0.00018  0.00031     13.9

 Output coordinates in angstroms (scale by  1.889725989 to convert to a.u.)

  No.       Tag          Charge          X              Y              Z
 ---- ---------------- ---------- -------------- -------------- --------------
    1 O                    8.0000     0.00000000     0.00000000     0.60081681
    2 O                    8.0000     0.00000000     0.00000000    -0.60081681

 Total times  cpu:       13.3s     wall:       13.9s
