============================== echo of input deck ==============================
echo
start o2_hfattn

geometry units angstrom
O        0.0000000000      0.0000000000      0.60066850000
O        0.0000000000      0.0000000000     -0.60066850000
symmetry c1
end

basis spherical
 * library "cc-pVTZ"
end

BASIS "cd basis" print
O    S
          9.57843253E+02         0.56249624
          2.81967425E+02         1.49108985
          9.01998320E+01         3.86547733
O    S
          3.11382990E+01         3.60577725
O    S
          1.14937320E+01         0.23005858
O    S
          4.48404900E+00        -0.05015769
O    S
          1.82350400E+00         1.05070463
O    S
          7.60903000E-01         0.58565488
O    S
          3.20292000E-01         0.07499129
O    P
          6.14708863E-01        -0.08557844
O    P
          1.47530127E+00         0.04179996
O    P
          3.69562968E+00        -0.05855108
O    D
          7.65267200E+00         0.09106873
O    D
          2.21786800E+00         0.11163134
O    D
          6.82337000E-01         0.04600666
O    F
          2.19178082E+00         1.00000000
END

set int:cando_txs f

dft
 xc hfexch 1.00
 cam 2000 cam_alpha 0.0 cam_beta 1.0
 odft
 mult 3
end
task dft energy
================================================================================

 Output coordinates in angstroms (scale by  1.889725989 to convert to a.u.)

  No.       Tag          Charge          X              Y              Z
 ---- ---------------- ---------- -------------- -------------- --------------
    1 O                    8.0000     0.00000000     0.00000000     0.60066850
    2 O                    8.0000     0.00000000     0.00000000    -0.60066850

         Total DFT energy =     -149.676509432226

                    DFT Final Alpha Molecular Orbital Analysis
                    ------------------------------------------

 Vector    1  Occ=1.000000D+00  E=-2.075165D+01

 Vector    2  Occ=1.000000D+00  E=-2.075097D+01

 Vector    3  Occ=1.000000D+00  E=-1.719192D+00

 Vector    4  Occ=1.000000D+00  E=-1.202300D+00

 Vector    5  Occ=1.000000D+00  E=-8.429851D-01

 Vector    6  Occ=1.000000D+00  E=-8.429851D-01

 Vector    7  Occ=1.000000D+00  E=-7.651858D-01

 Vector    8  Occ=1.000000D+00  E=-5.519917D-01

 Vector    9  Occ=1.000000D+00  E=-5.519917D-01

 Vector   10  Occ=0.000000D+00  E= 3.817529D-01

 Vector   11  Occ=0.000000D+00  E= 6.802199D-01

 Vector   12  Occ=0.000000D+00  E= 6.802199D-01

 Vector   13  Occ=0.000000D+00  E= 7.287056D-01

 Vector   14  Occ=0.000000D+00  E= 7.383650D-01

 Vector   15  Occ=0.000000D+00  E= 7.909791D-01

 Vector   16  Occ=0.000000D+00  E= 7.909791D-01

 Vector   17  Occ=0.000000D+00  E= 8.782393D-01

 Vector   18  Occ=0.000000D+00  E= 1.427230D+00

 Vector   19  Occ=0.000000D+00  E= 1.446038D+00

 Vector    1  Occ=1.000000D+00  E=-2.069722D+01

 Vector    2  Occ=1.000000D+00  E=-2.069599D+01

 Vector    3  Occ=1.000000D+00  E=-1.589377D+00

 Vector    4  Occ=1.000000D+00  E=-9.916390D-01

 Vector    5  Occ=1.000000D+00  E=-7.040655D-01

 Vector    6  Occ=1.000000D+00  E=-5.781625D-01

 Vector    7  Occ=1.000000D+00  E=-5.781625D-01

 Vector    8  Occ=0.000000D+00  E= 1.117008D-01

 Vector    9  Occ=0.000000D+00  E= 1.117008D-01

 Vector   10  Occ=0.000000D+00  E= 4.354328D-01

 Vector   11  Occ=0.000000D+00  E= 7.392916D-01

 Vector   12  Occ=0.000000D+00  E= 7.483837D-01

 Vector   13  Occ=0.000000D+00  E= 7.483837D-01

 Vector   14  Occ=0.000000D+00  E= 7.842468D-01

 Vector   15  Occ=0.000000D+00  E= 8.840244D-01

 Vector   16  Occ=0.000000D+00  E= 8.840244D-01

 Vector   17  Occ=0.000000D+00  E= 8.956644D-01

 Vector   18  Occ=0.000000D+00  E= 1.468700D+00

 Vector   19  Occ=0.000000D+00  E= 1.498967D+00

     Multipole analysis of the density
     ---------------------------------

     L   x y z        total         alpha         beta         nuclear
     -   - - -        -----         -----         ----         -------
     0   0 0 0      0.000000     -9.000000     -7.000000     16.000000

     1   1 0 0      0.000000      0.000000      0.000000      0.000000
     1   0 1 0      0.000000      0.000000      0.000000      0.000000
     1   0 0 1      0.000000      0.000000      0.000000      0.000000

     2   2 0 0     -7.373674     -4.111262     -3.262412      0.000000
     2   1 1 0      0.000000      0.000000      0.000000      0.000000
     2   1 0 1      0.000000      0.000000      0.000000      0.000000
     2   0 2 0     -7.373674     -4.111262     -3.262412      0.000000
     2   0 1 1      0.000000      0.000000      0.000000      0.000000

 Total times  cpu:        0.6s     wall:        0.7s
