         Total SCF energy =   -234.612326325962
         Total SCF energy =    -39.717479865340
         Total SCF energy =    -40.188229711197
         Total SCF energy =   -137.155222632791
         Total SCF energy =   -138.267828960155
         Total SCF energy =    -39.970079514572

 Output coordinates in angstroms (scale by  1.889725989 to convert to a.u.)

  No.       Tag          Charge          X              Y              Z
 ---- ---------------- ---------- -------------- -------------- --------------
    1 C                    6.0000    -0.43108746    -0.00816286    -0.00001700
    2 H                    1.0000    -1.12956183    -0.89391614    -0.00032126
    3 H                    1.0000    -1.13271632     0.90002547     0.00032229
    4 F                    9.0000     0.26975498     0.00076350    -1.09997558
    5 H oniom              1.0000     0.12959409    -0.00060054     0.87998984

 Total times  cpu:      131.1s     wall:      131.2s
