============================== echo of input deck ==============================
echo

start

# This reproduces the two-layer ONIOM (MP2:HF) result for the reaction
# R-CH3 -> R-CH2 + H with R=CH3 using CH4 as the model from
# Dapprich, Komaromi, Byun, Morokuma and Frisch, J. Mol. Struct (Theochem)
# 461-462 (1999) 1-21.

#             Me-CH2       Me-Me           H         De(au)   De (kcal/mol)
# b3lyp    -79.18506237 -79.85657567  -0.50225698   0.169257    106.2
# hf       -78.62014157 -79.25170142  -0.49981792   0.131741     82.7
# mp2      -78.90471636 -79.57165436  -0.49981792   0.167120    104.9
# mp2:hf   -78.75522394 -79.42255966  -0.49981792   0.167518    105.1

basis spherical
  H library 6-311++G**
  C library 6-311++G**
end

title "ONIOM Me-CH2"
geometry autosym # Me-CH2 6-311++g** b3lyp geometry
  H    -0.23429328     1.32498565     0.92634814
  H    -0.23429328     1.32498565    -0.92634814
  C    -0.13064265     0.77330370     0.00000000
  H    -1.01618703    -1.19260361     0.00000000
  H     0.49856072    -1.08196901    -0.88665533
  H     0.49856072    -1.08196901     0.88665533
  C    -0.02434414    -0.71063687     0.00000000
end
# These DFT options were used for the original geometry opt
# but are not used for the test calculation.
dft
  mult 2
  xc b3lyp
  convergence density 1e-6
  grid fine
  print low
end
scf
  uhf
  doublet
  thresh 1e-6
  semidirect memsize 12500000
end
mp2; freeze atomic; end

oniom
  high mp2
  low  scf
  model 3   3 7 0.724
end

task oniom

title "ONIOM Me-Me"
geometry noautosym # Me-Me 6-311++g** b3lyp geometry
  H   -0.72023641     0.72023641    -1.16373235
  H    0.98386124     0.26362482    -1.16373235
  H   -0.26362482    -0.98386124    -1.16373235
  C    0.00000000     0.00000000    -0.76537515
  H    0.72023641    -0.72023641     1.16373235
  H   -0.98386124    -0.26362482     1.16373235
  H    0.26362482     0.98386124     1.16373235
  C    0.00000000     0.00000000     0.76537515
end
scf
  rhf
  singlet
end
oniom
  high mp2
  low  scf
  model 4   4 8 0.724
end
dft
  mult 1
end
task oniom
================================================================================

         Total SCF energy =    -78.620141571617
         Total SCF energy =    -39.573384009055
         Total SCF energy =    -39.573384009998

 Vector   16  Occ=0.000000D+00  E= 5.659802D-01  Symmetry=a"

 Vector    2  Occ=1.000000D+00  E=-8.568055D-01  Symmetry=a'

 Vector    3  Occ=1.000000D+00  E=-5.704482D-01  Symmetry=a'

 Vector    4  Occ=1.000000D+00  E=-5.611571D-01  Symmetry=a"

 Vector    5  Occ=0.000000D+00  E= 4.779123D-02  Symmetry=a'

 Vector    6  Occ=0.000000D+00  E= 7.089593D-02  Symmetry=a'

 Vector    7  Occ=0.000000D+00  E= 7.505137D-02  Symmetry=a'

 Vector    8  Occ=0.000000D+00  E= 7.608757D-02  Symmetry=a"

 Vector    9  Occ=0.000000D+00  E= 1.552417D-01  Symmetry=a"

 Vector   10  Occ=0.000000D+00  E= 1.571169D-01  Symmetry=a'

 Vector   11  Occ=0.000000D+00  E= 1.968573D-01  Symmetry=a'

 Vector   12  Occ=0.000000D+00  E= 2.148386D-01  Symmetry=a'

 Vector   13  Occ=0.000000D+00  E= 2.843015D-01  Symmetry=a'

 Vector   14  Occ=0.000000D+00  E= 3.103887D-01  Symmetry=a"

 Vector   15  Occ=0.000000D+00  E= 3.108930D-01  Symmetry=a'

 Vector   16  Occ=0.000000D+00  E= 5.700162D-01  Symmetry=a"

          Total MP2 energy           -39.708466380726

 Output coordinates in angstroms (scale by  1.889725989 to convert to a.u.)

  No.       Tag          Charge          X              Y              Z
 ---- ---------------- ---------- -------------- -------------- --------------
    1 H                    1.0000    -0.72023641     0.72023641    -1.16373235
    2 H                    1.0000     0.98386124     0.26362482    -1.16373235
    3 H                    1.0000    -0.26362482    -0.98386124    -1.16373235
    4 C                    6.0000     0.00000000     0.00000000    -0.76537515
    5 H oniom              1.0000     0.00000000     0.00000000     0.34288807

         Total SCF energy =    -79.251701421585

 Vector    2  Occ=2.000000D+00  E=-1.121313D+01

 Vector    3  Occ=2.000000D+00  E=-1.016472D+00

 Vector    4  Occ=2.000000D+00  E=-8.416445D-01

 Vector    5  Occ=2.000000D+00  E=-5.953651D-01

 Vector    6  Occ=2.000000D+00  E=-5.953651D-01

 Vector    7  Occ=2.000000D+00  E=-5.096025D-01

 Vector    8  Occ=2.000000D+00  E=-4.863154D-01

 Vector    9  Occ=2.000000D+00  E=-4.863154D-01

 Vector   10  Occ=0.000000D+00  E= 4.418358D-02

 Vector   11  Occ=0.000000D+00  E= 5.957622D-02

 Vector   12  Occ=0.000000D+00  E= 6.790908D-02

 Vector   13  Occ=0.000000D+00  E= 6.790908D-02

 Vector   14  Occ=0.000000D+00  E= 9.912479D-02

 Vector   15  Occ=0.000000D+00  E= 9.912479D-02

 Vector   16  Occ=0.000000D+00  E= 1.433021D-01

 Vector   17  Occ=0.000000D+00  E= 1.491165D-01

 Vector   18  Occ=0.000000D+00  E= 1.491165D-01

 Vector   19  Occ=0.000000D+00  E= 1.750877D-01

 Vector   20  Occ=0.000000D+00  E= 1.969108D-01

 Vector   21  Occ=0.000000D+00  E= 2.032623D-01

 Vector   22  Occ=0.000000D+00  E= 2.032623D-01

 Vector   23  Occ=0.000000D+00  E= 2.064802D-01

 Vector   24  Occ=0.000000D+00  E= 2.999215D-01

 Vector   25  Occ=0.000000D+00  E= 2.999215D-01

 Vector   26  Occ=0.000000D+00  E= 3.274542D-01

 Vector   27  Occ=0.000000D+00  E= 3.274542D-01

 Vector   28  Occ=0.000000D+00  E= 3.813232D-01

 Vector   29  Occ=0.000000D+00  E= 4.133769D-01

 Vector   30  Occ=0.000000D+00  E= 4.437245D-01

 Vector   31  Occ=0.000000D+00  E= 5.758234D-01

         Total SCF energy =    -40.208094435169

 Vector    2  Occ=2.000000D+00  E=-9.399629D-01

 Vector    3  Occ=2.000000D+00  E=-5.476754D-01

 Vector    4  Occ=2.000000D+00  E=-5.401659D-01

 Vector    5  Occ=2.000000D+00  E=-5.401659D-01

 Vector    6  Occ=0.000000D+00  E= 4.186114D-02

 Vector    7  Occ=0.000000D+00  E= 7.775382D-02

 Vector    8  Occ=0.000000D+00  E= 7.879302D-02

 Vector    9  Occ=0.000000D+00  E= 7.879302D-02

 Vector   10  Occ=0.000000D+00  E= 1.521820D-01

 Vector   11  Occ=0.000000D+00  E= 1.521820D-01

 Vector   12  Occ=0.000000D+00  E= 1.531521D-01

 Vector   13  Occ=0.000000D+00  E= 1.898999D-01

 Vector   14  Occ=0.000000D+00  E= 3.062372D-01

 Vector   15  Occ=0.000000D+00  E= 3.082157D-01

 Vector   16  Occ=0.000000D+00  E= 3.082157D-01

 Vector   17  Occ=0.000000D+00  E= 3.782754D-01

 Vector   18  Occ=0.000000D+00  E= 5.482492D-01

         Total SCF energy =    -40.208094435168

 Vector    2  Occ=2.000000D+00  E=-9.399629D-01

 Vector    3  Occ=2.000000D+00  E=-5.476754D-01

 Vector    4  Occ=2.000000D+00  E=-5.401659D-01

 Vector    5  Occ=2.000000D+00  E=-5.401659D-01

 Vector    6  Occ=0.000000D+00  E= 4.186114D-02

 Vector    7  Occ=0.000000D+00  E= 7.775382D-02

 Vector    8  Occ=0.000000D+00  E= 7.879302D-02

 Vector    9  Occ=0.000000D+00  E= 7.879302D-02

 Vector   10  Occ=0.000000D+00  E= 1.521820D-01

 Vector   11  Occ=0.000000D+00  E= 1.521820D-01

 Vector   12  Occ=0.000000D+00  E= 1.531521D-01

 Vector   13  Occ=0.000000D+00  E= 1.898999D-01

 Vector   14  Occ=0.000000D+00  E= 3.062372D-01

 Vector   15  Occ=0.000000D+00  E= 3.082157D-01

 Vector   16  Occ=0.000000D+00  E= 3.082157D-01

 Vector   17  Occ=0.000000D+00  E= 3.782754D-01

 Vector   18  Occ=0.000000D+00  E= 5.482492D-01

       Multipole analysis of the density wrt the origin
       ------------------------------------------------

     L   x y z        total         open         nuclear
     -   - - -        -----         ----         -------
     0   0 0 0      0.000000      0.000000     10.000000

     1   1 0 0      0.000000      0.000000      0.000000
     1   0 1 0      0.000000      0.000000      0.000000
     1   0 0 1     -0.016157      0.000000    -14.627537

     2   2 0 0     -6.344928      0.000000      5.557367
     2   1 1 0      0.000000      0.000000      0.000000
     2   1 0 1      0.000000      0.000000      0.000000
     2   0 2 0     -6.344928      0.000000      5.557367
     2   0 1 1      0.000000      0.000000      0.000000

          Total MP2 energy           -40.378952669981
 Total times  cpu:        4.9s     wall:        5.3s
