============================== echo of input deck ==============================
echo

start

# Test of two-layer ONIOM geometry optimization and unscaled frequencies
# for acetaldehyde following
# Dapprich, Komaromi, Byun, Morokuma and Frisch, J. Mol. Struct (Theochem)
# 461-462 (1999) 1-21.

# Vibrational frequencies and geometry are correctly reproduced.
# See end for the correct output, or look in the paper.

geometry # sto-3g optmized geometry
  O     0.25977444     1.26351414    -0.32184727
  H    -1.42512409     0.38186873     0.37668588
  C    -0.38369252     0.28899452     0.02138351
  H     0.11527688    -1.57028792     1.00746379
  H    -0.46513157    -1.76803678    -0.64211149
  H     1.17645788    -1.17137932    -0.35247229
  C     0.15223603    -1.15091137     0.00543109
end

basis sto-3g
  h library sto-3g
  c library sto-3g
  o library sto-3g
end

basis dunning
  h library "SV (Dunning-Hay)"
  c library "SV (Dunning-Hay)"
  o library "SV (Dunning-Hay)"
end

scf; thresh 1e-6; end
dft; xc b3lyp; grid fine; convergence density 1e-6; end

oniom
  print low
  high dft basis dunning
  low  scf basis sto-3g
  model 3  3 7 0.709
end

driver; clear; end  # So that results are more reproducible
task oniom optimize

task oniom freq
================================================================================

         Total SCF energy =   -150.945992978440
         Total SCF energy =   -112.354098171799
         Total DFT energy =   -114.482430875753
@ Step       Energy      Delta E   Gmax     Grms     Xrms     Xmax   Walltime
@ ---- ---------------- -------- -------- -------- -------- -------- --------
@    0    -153.07432568  0.0D+00  0.03698  0.00817  0.00000  0.00000     36.1
         Total SCF energy =   -150.943489125493
         Total SCF energy =   -112.351489028778
         Total DFT energy =   -114.483045664411
         Total SCF energy =   -150.944785171114
         Total SCF energy =   -112.352822808958
         Total DFT energy =   -114.483250097042
@    1    -153.07521246 -8.9D-04  0.00151  0.00054  0.00982  0.03224     93.0
         Total SCF energy =   -150.944736326109
         Total SCF energy =   -112.352732772531
         Total DFT energy =   -114.483252456581
         Total SCF energy =   -150.944702495544
         Total SCF energy =   -112.352685088395
         Total DFT energy =   -114.483242034488
@    2    -153.07525944 -4.7D-05  0.00049  0.00016  0.00701  0.02363    145.5
         Total SCF energy =   -150.944696208774
         Total SCF energy =   -112.352669175715
         Total DFT energy =   -114.483235295971
         Total SCF energy =   -150.944696211527
         Total SCF energy =   -112.352669175715
         Total DFT energy =   -114.483235295952
@    3    -153.07526233 -2.9D-06  0.00009  0.00004  0.00188  0.00528    185.9
         Total SCF energy =   -150.944694783330
         Total SCF energy =   -112.352673947204
         Total DFT energy =   -114.483241687894
         Total SCF energy =   -150.944694475926
         Total SCF energy =   -112.352674833522
         Total DFT energy =   -114.483242887154
@    4    -153.07526253 -2.0D-07  0.00004  0.00001  0.00053  0.00125    232.0
@    4    -153.07526253 -2.0D-07  0.00004  0.00001  0.00053  0.00125    232.0

 Output coordinates in angstroms (scale by  1.889725989 to convert to a.u.)

  No.       Tag          Charge          X              Y              Z
 ---- ---------------- ---------- -------------- -------------- --------------
    1 O                    8.0000     0.26530174     1.23895814    -0.24187480
    2 H                    1.0000    -1.44048991     0.36469775     0.46312364
    3 C                    6.0000    -0.39415072     0.24623636     0.10916597
    4 H                    1.0000     0.11612619    -1.61242268     1.09128952
    5 H                    1.0000    -0.46433565    -1.81019439    -0.55846327
    6 H                    1.0000     1.17244152    -1.19994760    -0.26866799
    7 C                    6.0000     0.14838098    -1.18945880     0.09038819

         Total SCF energy =   -150.944694478708
         Total SCF energy =   -112.352674833522
         Total DFT energy =   -114.483242887700
         Total SCF energy =   -150.944669177945
         Total SCF energy =   -112.352652339509
         Total DFT energy =   -114.483245560437
         Total SCF energy =   -150.944719426744
         Total SCF energy =   -112.352696977826
         Total DFT energy =   -114.483239954464
         Total SCF energy =   -150.944654811331
         Total SCF energy =   -112.352631441405
         Total DFT energy =   -114.483238904711
         Total SCF energy =   -150.944733481543
         Total SCF energy =   -112.352717566663
         Total DFT energy =   -114.483246370634
         Total SCF energy =   -150.944707972094
         Total SCF energy =   -112.352687789513
         Total DFT energy =   -114.483242308949
         Total SCF energy =   -150.944680860647
         Total SCF energy =   -112.352661758328
         Total DFT energy =   -114.483243386840
         Total SCF energy =   -150.944700502344
         Total SCF energy =   -112.352682771663
         Total DFT energy =   -114.483244634087
         Total SCF energy =   -150.944688065351
         Total SCF energy =   -112.352666509978
         Total DFT energy =   -114.483240855456
         Total SCF energy =   -150.944691116313
         Total SCF energy =   -112.352669365899
         Total DFT energy =   -114.483240748085
         Total SCF energy =   -150.944697744574
         Total SCF energy =   -112.352680211413
         Total DFT energy =   -114.483244956665
         Total SCF energy =   -150.944692650668
         Total SCF energy =   -112.352672588686
         Total DFT energy =   -114.483242448580
         Total SCF energy =   -150.944696232280
         Total SCF energy =   -112.352677010409
         Total DFT energy =   -114.483243275683
         Total SCF energy =   -150.944714363102
         Total SCF energy =   -112.352685311302
         Total DFT energy =   -114.483233160691
         Total SCF energy =   -150.944673723383
         Total SCF energy =   -112.352663572774
         Total DFT energy =   -114.483252050550
         Total SCF energy =   -150.944736076960
         Total SCF energy =   -112.352728817734
         Total DFT energy =   -114.483254927967
         Total SCF energy =   -150.944651867816
         Total SCF energy =   -112.352619921872
         Total DFT energy =   -114.483230165762
         Total SCF energy =   -150.944682105066
         Total SCF energy =   -112.352664342889
         Total DFT energy =   -114.483244620512
         Total SCF energy =   -150.944706498256
         Total SCF energy =   -112.352685046238
         Total DFT energy =   -114.483240942685
         Total SCF energy =   -150.944694463821
         Total SCF energy =   -112.352674833521
         Total DFT energy =   -114.483242886910
         Total SCF energy =   -150.944694420682
         Total SCF energy =   -112.352674833521
         Total DFT energy =   -114.483242887284
         Total SCF energy =   -150.944694424482
         Total SCF energy =   -112.352674833521
         Total DFT energy =   -114.483242887703
         Total SCF energy =   -150.944694397290
         Total SCF energy =   -112.352674833521
         Total DFT energy =   -114.483242887681
         Total SCF energy =   -150.944694277173
         Total SCF energy =   -112.352674833521
         Total DFT energy =   -114.483242887303
         Total SCF energy =   -150.944694258500
         Total SCF energy =   -112.352674833521
         Total DFT energy =   -114.483242880498
         Total SCF energy =   -150.944694386941
         Total SCF energy =   -112.352674833521
         Total DFT energy =   -114.483242887275
         Total SCF energy =   -150.944694366497
         Total SCF energy =   -112.352674833521
         Total DFT energy =   -114.483242887275
         Total SCF energy =   -150.944694384927
         Total SCF energy =   -112.352674833521
         Total DFT energy =   -114.483242887283
         Total SCF energy =   -150.944694365474
         Total SCF energy =   -112.352674833521
         Total DFT energy =   -114.483242887500
         Total SCF energy =   -150.944694345965
         Total SCF energy =   -112.352674833521
         Total DFT energy =   -114.483242886935
         Total SCF energy =   -150.944694392151
         Total SCF energy =   -112.352674833521
         Total DFT energy =   -114.483242886938
         Total SCF energy =   -150.944694218880
         Total SCF energy =   -112.352674833521
         Total DFT energy =   -114.483242887917
         Total SCF energy =   -150.944694294227
         Total SCF energy =   -112.352674833521
         Total DFT energy =   -114.483242887284
         Total SCF energy =   -150.944694434151
         Total SCF energy =   -112.352674833521
         Total DFT energy =   -114.483242886107
         Total SCF energy =   -150.944694448045
         Total SCF energy =   -112.352674833521
         Total DFT energy =   -114.483242886936
         Total SCF energy =   -150.944694433639
         Total SCF energy =   -112.352674833521
         Total DFT energy =   -114.483242887917
         Total SCF energy =   -150.944694404871
         Total SCF energy =   -112.352674833521
         Total DFT energy =   -114.483242887519
         Total SCF energy =   -150.944692645350
         Total SCF energy =   -112.352678122084
         Total DFT energy =   -114.483247611964
         Total SCF energy =   -150.944695461571
         Total SCF energy =   -112.352671483956
         Total DFT energy =   -114.483238114723
         Total SCF energy =   -150.944694648032
         Total SCF energy =   -112.352668762915
         Total DFT energy =   -114.483236263558
         Total SCF energy =   -150.944693591424
         Total SCF energy =   -112.352680687985
         Total DFT energy =   -114.483249351756
         Total SCF energy =   -150.944694505015
         Total SCF energy =   -112.352674374317
         Total DFT energy =   -114.483241995989
         Total SCF energy =   -150.944693641161
         Total SCF energy =   -112.352675280397
         Total DFT energy =   -114.483243767239
 P.Frequency        0.00        0.00        0.00        0.00        0.00        0.00
 P.Frequency      161.57      490.38      861.72      988.89     1253.29     1260.72
 P.Frequency     1430.02     1691.30     1719.04     1804.85     1816.20     2956.53
 P.Frequency     3563.60     3737.98     3762.35
 Total times  cpu:     1138.3s     wall:     1347.9s
