============================== echo of input deck ==============================
echo
start pbe-test

memory stack 512 mb heap 512 mb global 1024 mb

geometry
C 0.0 0.0 0.0
O 0.0 0.0 1.128
symmetry c1
end

basis spherical
  * library "6-311++G(3df,3pd)"
end

set int:cando_txs f

dft
  xc xpbe96 1.0 cpbe96 nonlocal 1.0
  direct
end
task dft energy

tddft
  nroots 10
  algorithm 3
end

task tddft energy
================================================================================

 Output coordinates in angstroms (scale by  1.889725989 to convert to a.u.)

  No.       Tag          Charge          X              Y              Z
 ---- ---------------- ---------- -------------- -------------- --------------
    1 C                    6.0000     0.00000000     0.00000000    -0.64457143
    2 O                    8.0000     0.00000000     0.00000000     0.48342857

         Total DFT energy =     -113.228411352716

 Vector    1  Occ=2.000000D+00  E=-1.885448D+01

 Vector    2  Occ=2.000000D+00  E=-9.995431D+00

 Vector    3  Occ=2.000000D+00  E=-1.077911D+00

 Vector    4  Occ=2.000000D+00  E=-5.197182D-01

 Vector    5  Occ=2.000000D+00  E=-4.362048D-01

 Vector    6  Occ=2.000000D+00  E=-4.362048D-01

 Vector    7  Occ=2.000000D+00  E=-3.323423D-01

 Vector    8  Occ=0.000000D+00  E=-7.360353D-02

 Vector    9  Occ=0.000000D+00  E=-7.360353D-02

 Vector   10  Occ=0.000000D+00  E= 1.901439D-02

 Vector   11  Occ=0.000000D+00  E= 5.335035D-02

 Vector   12  Occ=0.000000D+00  E= 6.082483D-02

 Vector   13  Occ=0.000000D+00  E= 6.082483D-02

 Vector   14  Occ=0.000000D+00  E= 1.631986D-01

 Vector   15  Occ=0.000000D+00  E= 1.905824D-01

 Vector   16  Occ=0.000000D+00  E= 1.905824D-01

 Vector   17  Occ=0.000000D+00  E= 2.256258D-01

 Vector   18  Occ=0.000000D+00  E= 3.004547D-01

 Vector   19  Occ=0.000000D+00  E= 3.004552D-01

 Vector   20  Occ=0.000000D+00  E= 3.610825D-01

 Vector   21  Occ=0.000000D+00  E= 4.433131D-01

 Vector   22  Occ=0.000000D+00  E= 4.433131D-01

 Vector   23  Occ=0.000000D+00  E= 4.947762D-01

 Vector   24  Occ=0.000000D+00  E= 5.123277D-01

         Total DFT energy =     -113.228411357821

                       DFT Final Molecular Orbital Analysis
                       ------------------------------------

 Vector    1  Occ=2.000000D+00  E=-1.885448D+01

 Vector    2  Occ=2.000000D+00  E=-9.995431D+00

 Vector    3  Occ=2.000000D+00  E=-1.077910D+00

 Vector    4  Occ=2.000000D+00  E=-5.197177D-01

 Vector    5  Occ=2.000000D+00  E=-4.362039D-01

 Vector    6  Occ=2.000000D+00  E=-4.362039D-01

 Vector    7  Occ=2.000000D+00  E=-3.323434D-01

 Vector    8  Occ=0.000000D+00  E=-7.360364D-02

 Vector    9  Occ=0.000000D+00  E=-7.360364D-02

 Vector   10  Occ=0.000000D+00  E= 1.901418D-02

 Vector   11  Occ=0.000000D+00  E= 5.334970D-02

 Vector   12  Occ=0.000000D+00  E= 6.082448D-02

 Vector   13  Occ=0.000000D+00  E= 6.082448D-02

 Vector   14  Occ=0.000000D+00  E= 1.631986D-01

 Vector   15  Occ=0.000000D+00  E= 1.905824D-01

 Vector   16  Occ=0.000000D+00  E= 1.905824D-01

 Vector   17  Occ=0.000000D+00  E= 2.256258D-01

 Vector   18  Occ=0.000000D+00  E= 3.004545D-01

 Vector   19  Occ=0.000000D+00  E= 3.004551D-01

 Vector   20  Occ=0.000000D+00  E= 3.610819D-01

 Vector   21  Occ=0.000000D+00  E= 4.433125D-01

 Vector   22  Occ=0.000000D+00  E= 4.433125D-01

 Vector   23  Occ=0.000000D+00  E= 4.947758D-01

 Vector   24  Occ=0.000000D+00  E= 5.123276D-01

     Multipole analysis of the density
     ---------------------------------

     L   x y z        total         alpha         beta         nuclear
     -   - - -        -----         -----         ----         -------
     0   0 0 0      0.000000     -7.000000     -7.000000     14.000000

     1   1 0 0      0.000000      0.000000      0.000000      0.000000
     1   0 1 0      0.000000      0.000000      0.000000      0.000000
     1   0 0 1      0.087049      0.043524      0.043524      0.000000

     2   2 0 0     -7.684528     -3.842264     -3.842264      0.000000
     2   1 1 0      0.000000      0.000000      0.000000      0.000000
     2   1 0 1      0.000000      0.000000      0.000000      0.000000
     2   0 2 0     -7.684528     -3.842264     -3.842264      0.000000
     2   0 1 1      0.000000      0.000000      0.000000      0.000000

  Root  1 singlet a     0.303164377 a.u. (  8.2495260 eV)
  Root  2 singlet a     0.303164377 a.u. (  8.2495260 eV)
  Root  3 singlet a     0.359192684 a.u. (  9.7741344 eV)
  Root  4 singlet a     0.362600309 a.u. (  9.8668606 eV)
  Root  5 singlet a     0.374401099 a.u. ( 10.1879766 eV)
  Root  6 singlet a     0.374401103 a.u. ( 10.1879767 eV)
  Root  7 singlet a     0.389865117 a.u. ( 10.6087741 eV)
  Root  8 singlet a     0.393409712 a.u. ( 10.7052275 eV)
  Root  9 singlet a     0.393409712 a.u. ( 10.7052275 eV)
  Root 10 singlet a     0.455771976 a.u. ( 12.4021918 eV)
  Root  1 triplet a     0.210890877 a.u. (  5.7386352 eV)
  Root  2 triplet a     0.210890877 a.u. (  5.7386352 eV)
  Root  3 triplet a     0.298219667 a.u. (  8.1149735 eV)
  Root  4 triplet a     0.320961900 a.u. (  8.7338214 eV)
  Root  5 triplet a     0.320961901 a.u. (  8.7338214 eV)
  Root  6 triplet a     0.341558712 a.u. (  9.2942894 eV)
  Root  7 triplet a     0.362600309 a.u. (  9.8668606 eV)
  Root  8 triplet a     0.374600984 a.u. ( 10.1934158 eV)
  Root  9 triplet a     0.383333674 a.u. ( 10.4310444 eV)
  Root 10 triplet a     0.383333674 a.u. ( 10.4310444 eV)
 Total times  cpu:       74.4s     wall:      124.3s
