 Output coordinates in angstroms (scale by  1.889725989 to convert to a.u.)

  No.       Tag          Charge          X              Y              Z
 ---- ---------------- ---------- -------------- -------------- --------------
    1 H                    1.0000     0.45702107    -1.63174773     0.78857687
    2 N                    7.0000     0.23616506    -1.22924561    -0.09824637
    3 C                    6.0000    -0.42748187    -0.02114609     0.03395304
    4 H                    1.0000    -1.51697132     0.00488043    -0.12981864
    5 F                    9.0000     0.21907623     1.15094035    -0.01941687

         Total DFT energy =     -193.447067787350
         Total DFT energy =     -193.447067785894

 Vector   10  Occ=1.000000D+00  E=-3.429810D-01

 Vector   11  Occ=1.000000D+00  E=-2.722532D-01

 Vector   12  Occ=1.000000D+00  E=-1.683282D-01

 Vector   13  Occ=0.000000D+00  E=-1.037792D-01

 Vector   14  Occ=0.000000D+00  E= 8.391551D-02

 Vector   15  Occ=0.000000D+00  E= 1.287841D-01

 Vector   16  Occ=0.000000D+00  E= 1.689439D-01

 Vector   17  Occ=0.000000D+00  E= 2.806615D-01

 Vector   18  Occ=0.000000D+00  E= 5.006861D-01

 Vector   19  Occ=0.000000D+00  E= 5.201752D-01

 Vector   20  Occ=0.000000D+00  E= 5.666401D-01

 Vector   21  Occ=0.000000D+00  E= 6.557078D-01

 Vector   22  Occ=0.000000D+00  E= 7.074616D-01

 Vector    2  Occ=1.000000D+00  E=-1.398368D+01

 Vector    3  Occ=1.000000D+00  E=-1.006784D+01

 Vector    4  Occ=1.000000D+00  E=-1.163795D+00

 Vector    5  Occ=1.000000D+00  E=-7.839885D-01

 Vector    6  Occ=1.000000D+00  E=-5.929261D-01

 Vector    7  Occ=1.000000D+00  E=-4.849722D-01

 Vector    8  Occ=1.000000D+00  E=-4.521607D-01

 Vector    9  Occ=1.000000D+00  E=-4.187287D-01

 Vector   10  Occ=1.000000D+00  E=-3.429810D-01

 Vector   11  Occ=1.000000D+00  E=-2.722532D-01

 Vector   12  Occ=1.000000D+00  E=-1.683282D-01

 Vector   13  Occ=0.000000D+00  E=-1.037792D-01

 Vector   14  Occ=0.000000D+00  E= 8.391551D-02

 Vector   15  Occ=0.000000D+00  E= 1.287841D-01

 Vector   16  Occ=0.000000D+00  E= 1.689439D-01

 Vector   17  Occ=0.000000D+00  E= 2.806615D-01

 Vector   18  Occ=0.000000D+00  E= 5.006861D-01

 Vector   19  Occ=0.000000D+00  E= 5.201752D-01

 Vector   20  Occ=0.000000D+00  E= 5.666401D-01

 Vector   21  Occ=0.000000D+00  E= 6.557078D-01

 Vector   22  Occ=0.000000D+00  E= 7.074616D-01

         Total DFT energy =     -193.386657443663

                    DFT Final Alpha Molecular Orbital Analysis
                    ------------------------------------------

 Vector    1  Occ=1.000000D+00  E=-2.429125D+01

 Vector    2  Occ=1.000000D+00  E=-1.406232D+01

 Vector    3  Occ=1.000000D+00  E=-9.989128D+00

 Vector    4  Occ=1.000000D+00  E=-1.132983D+00

 Vector    5  Occ=1.000000D+00  E=-8.459461D-01

 Vector    6  Occ=1.000000D+00  E=-5.872659D-01

 Vector    7  Occ=1.000000D+00  E=-4.716702D-01

 Vector    8  Occ=1.000000D+00  E=-4.612186D-01

 Vector    9  Occ=1.000000D+00  E=-3.982452D-01

 Vector   10  Occ=1.000000D+00  E=-3.331037D-01

 Vector   11  Occ=1.000000D+00  E=-2.988611D-01

 Vector   12  Occ=1.000000D+00  E=-2.732148D-01

 Vector   13  Occ=1.000000D+00  E=-1.104034D-01

 Vector   14  Occ=0.000000D+00  E= 7.430466D-02

 Vector   15  Occ=0.000000D+00  E= 1.205990D-01

 Vector   16  Occ=0.000000D+00  E= 1.727325D-01

 Vector   17  Occ=0.000000D+00  E= 2.645592D-01

 Vector   18  Occ=0.000000D+00  E= 5.164785D-01

 Vector   19  Occ=0.000000D+00  E= 5.182624D-01

 Vector   20  Occ=0.000000D+00  E= 5.576987D-01

 Vector   21  Occ=0.000000D+00  E= 6.260453D-01

 Vector   22  Occ=0.000000D+00  E= 6.636553D-01

 Vector   23  Occ=0.000000D+00  E= 7.379983D-01

 Vector    1  Occ=1.000000D+00  E=-2.428710D+01

 Vector    2  Occ=1.000000D+00  E=-1.404746D+01

 Vector    3  Occ=1.000000D+00  E=-9.980126D+00

 Vector    4  Occ=1.000000D+00  E=-1.122147D+00

 Vector    5  Occ=1.000000D+00  E=-7.974613D-01

 Vector    6  Occ=1.000000D+00  E=-5.583367D-01

 Vector    7  Occ=1.000000D+00  E=-4.536623D-01

 Vector    8  Occ=1.000000D+00  E=-4.418417D-01

 Vector    9  Occ=1.000000D+00  E=-3.706551D-01

 Vector   10  Occ=1.000000D+00  E=-3.191096D-01

 Vector   11  Occ=1.000000D+00  E=-2.677649D-01

 Vector   12  Occ=0.000000D+00  E=-1.658431D-01

 Vector   13  Occ=0.000000D+00  E=-3.314440D-02

 Vector   14  Occ=0.000000D+00  E= 9.724961D-02

 Vector   15  Occ=0.000000D+00  E= 1.358959D-01

 Vector   16  Occ=0.000000D+00  E= 2.000495D-01

 Vector   17  Occ=0.000000D+00  E= 2.929940D-01

 Vector   18  Occ=0.000000D+00  E= 5.392625D-01

 Vector   19  Occ=0.000000D+00  E= 5.741163D-01

 Vector   20  Occ=0.000000D+00  E= 5.987639D-01

 Vector   21  Occ=0.000000D+00  E= 6.741563D-01

 Vector   22  Occ=0.000000D+00  E= 6.882680D-01

 Vector   23  Occ=0.000000D+00  E= 7.927023D-01

     Multipole analysis of the density
     ---------------------------------

     L   x y z        total         alpha         beta         nuclear
     -   - - -        -----         -----         ----         -------
     0   0 0 0      0.000000    -13.000000    -11.000000     24.000000

     1   1 0 0     -0.248719     -0.025638     -0.223081      0.000000
     1   0 1 0     -0.264012      0.997378     -1.261390      0.000000
     1   0 0 1      0.477984      0.209538      0.268446      0.000000

     2   2 0 0    -11.421491    -15.080949    -12.156364     15.815822
     2   1 1 0     -0.144666      1.159240      0.345034     -1.648939
     2   1 0 1      0.752363      0.052296     -0.262482      0.962548
     2   0 2 0    -12.857204    -55.418001    -47.303587     89.864384
     2   0 1 1     -1.923391      0.024043      0.364640     -2.312073

 Total times  cpu:       84.1s     wall:       87.5s
