============================== echo of input deck ==============================
echo
start ptatom

memory global 40 mb stack 23 mb heap 5 mb

geometry units au
 symmetry oh
 Pt 0       0        0
end

BASIS "ao basis" PRINT
#BASIS SET: (8s,7p,6d) -> [6s,5p,3d]
Pt    S
     16.5595630             -0.8849447
     13.8924400              1.5011228
      5.8536080             -1.5529012
Pt    S
      1.2873200              1.0000000
Pt    S
      0.6047320              1.0000000
Pt    S
      0.1427830              1.0000000
Pt    S
      0.0509690              1.0000000
Pt    S
      0.0150000              1.0000000
Pt    P
      7.9251750              4.9530757
      7.3415380             -5.8982100
Pt    P
      1.9125150              0.3047425
      1.0715450              0.7164894
Pt    P
      0.4379170              1.0000000
Pt    P
      0.0936210              1.0000000
Pt    P
      0.0278020              1.0000000
Pt    D
      3.9395310             -0.5826439
      3.5877770              0.5922576
      1.2862310              0.4736921
      0.5198140              0.5765202
Pt    D
      0.1747150              1.0000000
Pt    D
      0.0500000              1.0000000
END
# ELEMENTS                      REFERENCES
#  ---------                       ----------
#

ECP
Pt nelec 60
Pt ul
2      1.000000000            0.000000000
Pt S
2     13.428651000          579.223861000
2      6.714326000           29.669491000
Pt P
2     10.365944000          280.860774000
2      5.182972000           26.745382000
Pt D
2      7.600479000          120.396444000
2      3.800240000           15.810921000
Pt F
2      3.309569000           24.314376000
Pt G
2      5.277289000          -24.218675000
END

dft
 max_ovl
 mult 3
 odft
 xc xpbe96 cpbe96
 iterations 1000
end

task dft
================================================================================

 Output coordinates in a.u. (scale by  1.000000000 to convert to a.u.)

  No.       Tag          Charge          X              Y              Z
 ---- ---------------- ---------- -------------- -------------- --------------
    1 Pt                  78.0000     0.00000000     0.00000000     0.00000000

         Total DFT energy =     -119.296122536013

                    DFT Final Alpha Molecular Orbital Analysis
                    ------------------------------------------

 Vector    1  Occ=1.000000D+00  E=-3.776030D+00  Symmetry=a1g

 Vector    2  Occ=1.000000D+00  E=-2.059559D+00  Symmetry=t1u

 Vector    3  Occ=1.000000D+00  E=-2.059559D+00  Symmetry=t1u

 Vector    4  Occ=1.000000D+00  E=-2.059559D+00  Symmetry=t1u

 Vector    5  Occ=1.000000D+00  E=-2.517043D-01  Symmetry=eg

 Vector    6  Occ=1.000000D+00  E=-2.517043D-01  Symmetry=eg

 Vector    7  Occ=1.000000D+00  E=-2.369652D-01  Symmetry=t2g

 Vector    8  Occ=1.000000D+00  E=-2.369652D-01  Symmetry=t2g

 Vector    9  Occ=1.000000D+00  E=-2.369652D-01  Symmetry=t2g

 Vector   10  Occ=1.000000D+00  E=-2.220448D-01  Symmetry=a1g

 Vector   11  Occ=0.000000D+00  E=-3.935382D-02  Symmetry=t1u

 Vector   12  Occ=0.000000D+00  E=-3.935382D-02  Symmetry=t1u

 Vector   13  Occ=0.000000D+00  E=-3.935382D-02  Symmetry=t1u

 Vector   14  Occ=0.000000D+00  E= 4.454509D-03  Symmetry=a1g

 Vector   15  Occ=0.000000D+00  E= 9.290723D-02  Symmetry=t2g

 Vector   16  Occ=0.000000D+00  E= 9.290723D-02  Symmetry=t2g

 Vector   17  Occ=0.000000D+00  E= 9.290723D-02  Symmetry=t2g

 Vector   18  Occ=0.000000D+00  E= 9.217272D-02  Symmetry=eg

 Vector   19  Occ=0.000000D+00  E= 9.217272D-02  Symmetry=eg

 Vector   20  Occ=0.000000D+00  E= 9.199598D-02  Symmetry=t1u

 Vector   21  Occ=0.000000D+00  E= 9.199598D-02  Symmetry=t1u

 Vector   22  Occ=0.000000D+00  E= 9.199598D-02  Symmetry=t1u

 Vector   23  Occ=0.000000D+00  E= 9.827317D-02  Symmetry=a1g

 Vector   24  Occ=0.000000D+00  E= 3.557829D-01  Symmetry=a1g

 Vector   25  Occ=0.000000D+00  E= 5.659216D-01  Symmetry=eg

 Vector    1  Occ=1.000000D+00  E=-3.754385D+00  Symmetry=a1g

 Vector    2  Occ=1.000000D+00  E=-2.034648D+00  Symmetry=t1u

 Vector    3  Occ=1.000000D+00  E=-2.034648D+00  Symmetry=t1u

 Vector    4  Occ=1.000000D+00  E=-2.034648D+00  Symmetry=t1u

 Vector    5  Occ=1.000000D+00  E=-2.130745D-01  Symmetry=t2g

 Vector    6  Occ=1.000000D+00  E=-2.130745D-01  Symmetry=t2g

 Vector    7  Occ=1.000000D+00  E=-2.130745D-01  Symmetry=t2g

 Vector    8  Occ=1.000000D+00  E=-2.019728D-01  Symmetry=eg

 Vector    9  Occ=0.000000D+00  E=-2.019728D-01  Symmetry=eg

 Vector   10  Occ=0.000000D+00  E=-1.843913D-01  Symmetry=a1g

 Vector   11  Occ=0.000000D+00  E=-1.468901D-02  Symmetry=t1u

 Vector   12  Occ=0.000000D+00  E=-1.468901D-02  Symmetry=t1u

 Vector   13  Occ=0.000000D+00  E=-1.468901D-02  Symmetry=t1u

 Vector   14  Occ=0.000000D+00  E= 1.482184D-02  Symmetry=a1g

 Vector   15  Occ=0.000000D+00  E= 1.110102D-01  Symmetry=t2g

 Vector   16  Occ=0.000000D+00  E= 1.110102D-01  Symmetry=t2g

 Vector   17  Occ=0.000000D+00  E= 1.110102D-01  Symmetry=t2g

 Vector   18  Occ=0.000000D+00  E= 1.135790D-01  Symmetry=eg

 Vector   19  Occ=0.000000D+00  E= 1.147259D-01  Symmetry=t1u

 Vector   20  Occ=0.000000D+00  E= 1.147259D-01  Symmetry=t1u

 Vector   21  Occ=0.000000D+00  E= 1.147259D-01  Symmetry=t1u

 Vector   22  Occ=0.000000D+00  E= 1.135790D-01  Symmetry=eg

 Vector   23  Occ=0.000000D+00  E= 1.137026D-01  Symmetry=a1g

 Vector   24  Occ=0.000000D+00  E= 3.752962D-01  Symmetry=a1g

 Vector   25  Occ=0.000000D+00  E= 5.981594D-01  Symmetry=t2g

 Total times  cpu:        1.0s     wall:        1.1s
