         Total DFT energy =     -400.821838925519

 Vector   16  Occ=0.000000D+00  E= 6.251972D-01  Symmetry=b1

 Vector   17  Occ=0.000000D+00  E= 6.572700D-01  Symmetry=a1

 Vector   18  Occ=0.000000D+00  E= 6.859273D-01  Symmetry=a2

 Vector   19  Occ=0.000000D+00  E= 6.934553D-01  Symmetry=b2

@ Step       Energy      Delta E   Gmax     Grms     Xrms     Xmax   Walltime
@ ---- ---------------- -------- -------- -------- -------- -------- --------
@    0    -400.82183893  0.0D+00  0.00110  0.00066  0.00000  0.00000      2.1
         Total DFT energy =     -400.821850521946

 Vector    1  Occ=2.000000D+00  E=-8.835888D+01  Symmetry=a1

 Vector    2  Occ=2.000000D+00  E=-7.801304D+00  Symmetry=a1

 Vector    3  Occ=2.000000D+00  E=-5.761772D+00  Symmetry=b1

 Vector    4  Occ=2.000000D+00  E=-5.757927D+00  Symmetry=a1

 Vector    5  Occ=2.000000D+00  E=-5.748936D+00  Symmetry=b2

 Vector    6  Occ=2.000000D+00  E=-6.979280D-01  Symmetry=a1

 Vector    7  Occ=2.000000D+00  E=-4.205482D-01  Symmetry=b1

 Vector    8  Occ=2.000000D+00  E=-3.384435D-01  Symmetry=a1

 Vector    9  Occ=2.000000D+00  E=-2.324959D-01  Symmetry=b2

 Vector   10  Occ=0.000000D+00  E=-1.438463D-02  Symmetry=b1

 Vector   11  Occ=0.000000D+00  E= 2.721252D-02  Symmetry=a1

 Vector   12  Occ=0.000000D+00  E= 2.878774D-01  Symmetry=b1

 Vector   13  Occ=0.000000D+00  E= 3.005993D-01  Symmetry=a1

 Vector   14  Occ=0.000000D+00  E= 3.185937D-01  Symmetry=a1

 Vector   15  Occ=0.000000D+00  E= 3.390709D-01  Symmetry=b2

 Vector   16  Occ=0.000000D+00  E= 6.257416D-01  Symmetry=b1

 Vector   17  Occ=0.000000D+00  E= 6.574280D-01  Symmetry=a1

 Vector   18  Occ=0.000000D+00  E= 6.857706D-01  Symmetry=a2

 Vector   19  Occ=0.000000D+00  E= 6.937250D-01  Symmetry=b2

@    1    -400.82185052 -1.2D-05  0.00010  0.00006  0.00505  0.00943      3.8
         Total DFT energy =     -400.821850623255

 Vector    1  Occ=2.000000D+00  E=-8.835887D+01  Symmetry=a1

 Vector    2  Occ=2.000000D+00  E=-7.801293D+00  Symmetry=a1

 Vector    3  Occ=2.000000D+00  E=-5.761764D+00  Symmetry=b1

 Vector    4  Occ=2.000000D+00  E=-5.757913D+00  Symmetry=a1

 Vector    5  Occ=2.000000D+00  E=-5.748926D+00  Symmetry=b2

 Vector    6  Occ=2.000000D+00  E=-6.979267D-01  Symmetry=a1

 Vector    7  Occ=2.000000D+00  E=-4.206590D-01  Symmetry=b1

 Vector    8  Occ=2.000000D+00  E=-3.383530D-01  Symmetry=a1

 Vector    9  Occ=2.000000D+00  E=-2.324942D-01  Symmetry=b2

 Vector   10  Occ=0.000000D+00  E=-1.430161D-02  Symmetry=b1

 Vector   11  Occ=0.000000D+00  E= 2.716695D-02  Symmetry=a1

 Vector   12  Occ=0.000000D+00  E= 2.878383D-01  Symmetry=b1

 Vector   13  Occ=0.000000D+00  E= 3.005295D-01  Symmetry=a1

 Vector   14  Occ=0.000000D+00  E= 3.186205D-01  Symmetry=a1

 Vector   15  Occ=0.000000D+00  E= 3.390727D-01  Symmetry=b2

 Vector   16  Occ=0.000000D+00  E= 6.257891D-01  Symmetry=b1

 Vector   17  Occ=0.000000D+00  E= 6.574383D-01  Symmetry=a1

 Vector   18  Occ=0.000000D+00  E= 6.857510D-01  Symmetry=a2

 Vector   19  Occ=0.000000D+00  E= 6.937490D-01  Symmetry=b2

@    2    -400.82185062 -1.0D-07  0.00001  0.00001  0.00047  0.00080      5.4
         Total DFT energy =     -400.821850623995

 Vector    1  Occ=2.000000D+00  E=-8.835887D+01  Symmetry=a1

 Vector    2  Occ=2.000000D+00  E=-7.801291D+00  Symmetry=a1

 Vector    3  Occ=2.000000D+00  E=-5.761762D+00  Symmetry=b1

 Vector    4  Occ=2.000000D+00  E=-5.757910D+00  Symmetry=a1

 Vector    5  Occ=2.000000D+00  E=-5.748924D+00  Symmetry=b2

 Vector    6  Occ=2.000000D+00  E=-6.979310D-01  Symmetry=a1

 Vector    7  Occ=2.000000D+00  E=-4.206648D-01  Symmetry=b1

 Vector    8  Occ=2.000000D+00  E=-3.383515D-01  Symmetry=a1

 Vector    9  Occ=2.000000D+00  E=-2.324943D-01  Symmetry=b2

 Vector   10  Occ=0.000000D+00  E=-1.429520D-02  Symmetry=b1

 Vector   11  Occ=0.000000D+00  E= 2.717378D-02  Symmetry=a1

 Vector   12  Occ=0.000000D+00  E= 2.878351D-01  Symmetry=b1

 Vector   13  Occ=0.000000D+00  E= 3.005213D-01  Symmetry=a1

 Vector   14  Occ=0.000000D+00  E= 3.186220D-01  Symmetry=a1

 Vector   15  Occ=0.000000D+00  E= 3.390728D-01  Symmetry=b2

 Vector   16  Occ=0.000000D+00  E= 6.257884D-01  Symmetry=b1

 Vector   17  Occ=0.000000D+00  E= 6.574371D-01  Symmetry=a1

 Vector   18  Occ=0.000000D+00  E= 6.857498D-01  Symmetry=a2

 Vector   19  Occ=0.000000D+00  E= 6.937488D-01  Symmetry=b2

@    3    -400.82185062 -7.4D-10  0.00000  0.00000  0.00001  0.00003      6.9
@    3    -400.82185062 -7.4D-10  0.00000  0.00000  0.00001  0.00003      6.9

 Output coordinates in angstroms (scale by  1.889725989 to convert to a.u.)

  No.       Tag          Charge          X              Y              Z
 ---- ---------------- ---------- -------------- -------------- --------------
    1 S                   16.0000     0.00000000     0.00000000     0.10040259
    2 H                    1.0000    -0.96943890     0.00000000    -0.82928998
    3 H                    1.0000     0.96943890     0.00000000    -0.82928998

         Total DFT energy =     -400.821850623010

                       DFT Final Molecular Orbital Analysis
                       ------------------------------------

 Vector    1  Occ=2.000000D+00  E=-8.835887D+01

 Vector    2  Occ=2.000000D+00  E=-7.801291D+00

 Vector    3  Occ=2.000000D+00  E=-5.761762D+00

 Vector    4  Occ=2.000000D+00  E=-5.757910D+00

 Vector    5  Occ=2.000000D+00  E=-5.748924D+00

 Vector    6  Occ=2.000000D+00  E=-6.979310D-01

 Vector    7  Occ=2.000000D+00  E=-4.206648D-01

 Vector    8  Occ=2.000000D+00  E=-3.383515D-01

 Vector    9  Occ=2.000000D+00  E=-2.324944D-01

 Vector   10  Occ=0.000000D+00  E=-1.429521D-02

 Vector   11  Occ=0.000000D+00  E= 2.717377D-02

 Vector   12  Occ=0.000000D+00  E= 2.878351D-01

 Vector   13  Occ=0.000000D+00  E= 3.005213D-01

 Vector   14  Occ=0.000000D+00  E= 3.186220D-01

 Vector   15  Occ=0.000000D+00  E= 3.390728D-01

 Vector   16  Occ=0.000000D+00  E= 6.257884D-01

 Vector   17  Occ=0.000000D+00  E= 6.574370D-01

 Vector   18  Occ=0.000000D+00  E= 6.857497D-01

 Vector   19  Occ=0.000000D+00  E= 6.937488D-01

     Multipole analysis of the density
     ---------------------------------

     L   x y z        total         alpha         beta         nuclear
     -   - - -        -----         -----         ----         -------
     0   0 0 0      0.000000     -9.000000     -9.000000     18.000000

     1   1 0 0      0.000000      0.000000      0.000000      0.000000
     1   0 1 0      0.000000      0.000000      0.000000      0.000000
     1   0 0 1     -0.588196     -0.244834     -0.244834     -0.098527

     2   2 0 0     -8.946485     -7.829371     -7.829371      6.712257
     2   1 1 0      0.000000      0.000000      0.000000      0.000000
     2   1 0 1      0.000000      0.000000      0.000000      0.000000
     2   0 2 0    -12.243273     -6.121637     -6.121637      0.000000
     2   0 1 1      0.000000      0.000000      0.000000      0.000000

 Zero-Point correction to Energy  =    9.667 kcal/mol  (  0.015406 au)
 Thermal correction to Energy     =   11.453 kcal/mol  (  0.018251 au)
 Thermal correction to Enthalpy   =   12.045 kcal/mol  (  0.019195 au)
 Total Entropy                    =   49.113 cal/mol-K
   - Translational                =   36.485 cal/mol-K (mol. weight =  33.9877)
   - Rotational                   =   12.594 cal/mol-K (symmetry #  =        2)
   - Vibrational                  =    0.034 cal/mol-K
   - Translational                  =    2.979 cal/mol-K
   - Rotational                     =    2.979 cal/mol-K
   - Vibrational                    =    0.178 cal/mol-K
 P.Frequency        0.00        0.00        0.00        0.00        0.00        0.00
 P.Frequency     1244.84     2749.19     2771.64

 Normal Eigenvalue ||           Projected Infra Red Intensities
  Mode   [cm**-1]  || [atomic units] [(debye/angs)**2] [(KM/mol)] [arbitrary]
 ------ ---------- || -------------- ----------------- ---------- -----------
    1        0.000 ||    0.026932           0.621        26.254      22.842
    2        0.000 ||    0.000219           0.005         0.213       0.185
    3        0.000 ||    0.003506           0.081         3.418       2.973
    4        0.000 ||    0.027805           0.641        27.106      23.583
    5        0.000 ||    0.027805           0.641        27.106      23.583
    6        0.000 ||    0.000271           0.006         0.264       0.230
    7     1244.842 ||    0.003841           0.089         3.745       3.258
    8     2749.189 ||    0.007038           0.162         6.861       5.969
    9     2771.641 ||    0.008698           0.201         8.479       7.377
 ----------------------------------------------------------------------------

 Total times  cpu:       22.5s     wall:       26.3s
