============================== echo of input deck ==============================
echo

memory total 800 Mb

start asa

#prepare
#  system asa_ref
#  source asa.pdb
#  new_top new_seq
#  new_rst
#  modify atom 2:_CB quantum
#  modify atom 2:2HB quantum
#  modify atom 2:3HB quantum
#  modify atom 2:_OG quantum
#  modify atom 2:_HG quantum
#  center
#  orient
#  solvate
#  fix segments beyond 0.5 2:_OG
#  update lists
#  ignore
#  write asa_ref.rst
#  write asa_ref.pdb   # Write out PDB file to check structure
#end
#task prepare
#

#----------------------------------------
# this can be replaced by
# task shell "cp asa_ref.rst asa_qmmm.rst"
#-----------------------------------------
prepare
read asa_ref.rst
write asa_qmmm.rst
end
task prepare
#----------------------------------------
# noshake solute always have tobe present
# if optimizing classical solvent
#---------------------------------------
md
  system asa_qmmm
  noshake solute
  cells 2 2 2
end

basis "ao basis"
  * library "6-31G*"
end

dft
 print low
 iterations 500
end

#----------------------------------------
# optimization will be done for three
# regions (one after another)
# esp charges will be used where possible
# to speed up calculations
#----------------------------------------
qmmm
region qmlink mm_solute solvent
maxiter 5     5         5
ncycles 3
density espfit
end

task qmmm dft optimize

================================================================================

@ QM/MM Multiple Region Optimization
@ region1:  qmlink    with bfgs      maxiter =  5
@ region2:  mm_solute with lbfgs     maxiter =  5
@ region3:  solvent   with sd        maxiter =  5
@ ncycle =  1
@ Optimizing qmlink     region with bfgs
         Total DFT energy =     -114.780688798532
@ Step       Energy      Delta E   Gmax     Grms     Xrms     Xmax   Walltime
@ ---- ---------------- -------- -------- -------- -------- -------- --------
@    0    -114.03122439  0.0D+00  0.01932  0.00917  0.00000  0.00000      2.7
         Total DFT energy =     -114.781742089936
         Total DFT energy =     -114.781839554865
@    1    -114.03220532 -9.8D-04  0.01107  0.00537  0.01221  0.02574      5.5
         Total DFT energy =     -114.783082807907
         Total DFT energy =     -114.784006432614
@    2    -114.03324437 -1.0D-03  0.01195  0.00419  0.02489  0.06344      8.1
         Total DFT energy =     -114.784311344005
         Total DFT energy =     -114.784375269383
@    3    -114.03366405 -4.2D-04  0.00460  0.00268  0.01483  0.03278     10.6
         Total DFT energy =     -114.784438980840
         Total DFT energy =     -114.784436047894
@    4    -114.03387438 -2.1D-04  0.00645  0.00291  0.01142  0.01842     13.2
         Total DFT energy =     -114.784387667193
         Total DFT energy =     -114.784358243339
@    5    -114.03406220 -1.9D-04  0.00583  0.00249  0.01253  0.02318     15.7
@    5    -114.03406220 -1.9D-04  0.00583  0.00249  0.01253  0.02318     15.7
@ Optimizing mm_solute  region with lbfgs
@ and esp fitted charges for the qm region
@ Step       Energy      Delta E   Gmax     Grms     Xrms     Xmax   Walltime
@ ---- ---------------- -------- -------- -------- -------- -------- --------
@    1       0.72699050  7.3D-01  0.07247  0.01126  0.02315  0.11651     16.2
@    2       0.71971678 -7.3D-03  0.03112  0.00711  0.01168  0.06374     16.3
@    3       0.71197440 -7.7D-03  0.01304  0.00427  0.02458  0.11472     16.3
@    4       0.70904932 -2.9D-03  0.02891  0.00617  0.01814  0.05818     16.3
@    5       0.70573407 -3.3D-03  0.01416  0.00424  0.02006  0.06029     16.3
@ Optimizing solvent    region with sd
@ and esp fitted charges for the qm region
@ Step       Energy      Delta E   SGrms     WGrms     Xmax
@ ---- ---------------- -------- -------- -------- --------
@    1       0.71248169 -1.7D-03  0.00000  0.01832  0.05793
@    2       0.71080936 -1.7D-03  0.00000  0.01837  0.06582
@    3       0.70920522 -1.6D-03  0.00000  0.01842  0.07393
@    4       0.70770679 -1.5D-03  0.00000  0.01848  0.08200
@    5       0.70634169 -1.4D-03  0.00000  0.01853  0.08967
         Total DFT energy =     -114.784481060562
@ QM/MM Energy
@ quantum energy                     -114.784481061 (-.301367E+06  kjoule/mol)
@ quantum energy adjusted            -114.784481061 (-.301367E+06  kjoule/mol)
@ quantum energy internal            -114.772549064 (-.301335E+06  kjoule/mol)
@ Bq-nuclear energy                     0.153870956 (0.403988E+03  kjoule/mol)
@ Bq-electron energy                   -0.165802953 (-.435316E+03  kjoule/mol)
@ classical energy                      0.702598101 (0.184467E+04  kjoule/mol)
@ total qmmm energy                  -114.081882960 (-.299522E+06  kjoule/mol)
@ ncycle =  2
@ Optimizing qmlink     region with bfgs
         Total DFT energy =   -114.784481060562
@ Step       Energy      Delta E   Gmax     Grms     Xrms     Xmax   Walltime
@ ---- ---------------- -------- -------- -------- -------- -------- --------
@    0    -114.08188296  0.0D+00  0.06108  0.01492  0.00000  0.00000     18.0
         Total DFT energy =     -114.784914027645
         Total DFT energy =   -114.784914027645
@    1    -114.08565772 -3.8D-03  0.00678  0.00323  0.03446  0.11484     19.8
         Total DFT energy =     -114.785055372782
         Total DFT energy =     -114.785096445224
@    2    -114.08592628 -2.7D-04  0.00723  0.00326  0.01001  0.01724     22.3
         Total DFT energy =     -114.785150333635
         Total DFT energy =     -114.785034152838
@    3    -114.08647155 -5.5D-04  0.00716  0.00325  0.03093  0.06121     24.9
         Total DFT energy =     -114.785117796885
         Total DFT energy =     -114.785114370849
@    4    -114.08670508 -2.3D-04  0.00307  0.00145  0.01740  0.03594     27.4
         Total DFT energy =     -114.785168570810
         Total DFT energy =     -114.785255856178
@    5    -114.08686975 -1.6D-04  0.00454  0.00172  0.01907  0.04574     29.9
@    5    -114.08686975 -1.6D-04  0.00454  0.00172  0.01907  0.04574     29.9
@ Optimizing mm_solute  region with lbfgs
@ and esp fitted charges for the qm region
@ Step       Energy      Delta E   Gmax     Grms     Xrms     Xmax   Walltime
@ ---- ---------------- -------- -------- -------- -------- -------- --------
@    1       0.69129733  6.9D-01  0.01499  0.00380  0.00746  0.02638     30.0
@    2       0.69022845 -1.1D-03  0.00982  0.00326  0.00461  0.01803     30.0
@    3       0.68595987 -4.3D-03  0.01192  0.00424  0.03690  0.14178     30.0
@    4       0.68560616 -3.5D-04  0.04314  0.00953  0.03066  0.10137     30.1
@    5       0.68296899 -2.6D-03  0.01253  0.00367  0.00673  0.02644     30.1
@ Optimizing solvent    region with sd
@ and esp fitted charges for the qm region
@ Step       Energy      Delta E   SGrms     WGrms     Xmax
@ ---- ---------------- -------- -------- -------- --------
@    1       0.69150094 -5.3D-04  0.00000  0.01855  0.03930
@    2       0.69093589 -5.7D-04  0.00000  0.01857  0.04493
@    3       0.69035018 -5.9D-04  0.00000  0.01860  0.05087
@    4       0.68975650 -5.9D-04  0.00000  0.01863  0.05694
@    5       0.68910543 -6.5D-04  0.00000  0.01867  0.06285
         Total DFT energy =     -114.785514295844
@ QM/MM Energy
@ quantum energy                     -114.785514296 (-.301369E+06  kjoule/mol)
@ quantum energy adjusted            -114.785514296 (-.301369E+06  kjoule/mol)
@ quantum energy internal            -114.772843015 (-.301336E+06  kjoule/mol)
@ Bq-nuclear energy                     0.147090323 (0.386186E+03  kjoule/mol)
@ Bq-electron energy                   -0.159761604 (-.419454E+03  kjoule/mol)
@ classical energy                      0.685663015 (0.180021E+04  kjoule/mol)
@ total qmmm energy                  -114.099851281 (-.299569E+06  kjoule/mol)
@ ncycle =  3
@ Optimizing qmlink     region with bfgs
         Total DFT energy =   -114.785514295844
@ Step       Energy      Delta E   Gmax     Grms     Xrms     Xmax   Walltime
@ ---- ---------------- -------- -------- -------- -------- -------- --------
@    0    -114.09985128  0.0D+00  0.04694  0.01138  0.00000  0.00000     31.8
         Total DFT energy =     -114.785874560601
         Total DFT energy =   -114.785874560601
@    1    -114.10231768 -2.5D-03  0.00411  0.00193  0.04946  0.09894     33.4
         Total DFT energy =     -114.785955734187
         Total DFT energy =     -114.785986305216
@    2    -114.10245841 -1.4D-04  0.00504  0.00214  0.01257  0.03351     36.0
         Total DFT energy =     -114.786110017096
         Total DFT energy =     -114.786415281602
@    3    -114.10285217 -3.9D-04  0.00400  0.00154  0.03076  0.06359     38.5
         Total DFT energy =     -114.786768476859
         Total DFT energy =     -114.786864114402
@    4    -114.10307889 -2.3D-04  0.00525  0.00231  0.04028  0.08283     41.1
         Total DFT energy =     -114.787001471397
         Total DFT energy =     -114.787255586050
@    5    -114.10337937 -3.0D-04  0.00742  0.00287  0.02086  0.04388     43.7
@    5    -114.10337937 -3.0D-04  0.00742  0.00287  0.02086  0.04388     43.7

 Output coordinates in angstroms (scale by  1.889725989 to convert to a.u.)

  No.       Tag          Charge          X              Y              Z
 ---- ---------------- ---------- -------------- -------------- --------------
    1 C                    6.0000     0.98718104     1.74716606    -0.10326235
    2 H                    1.0000     1.96417514     1.23518829    -0.20318807
    3 H                    1.0000     0.82882786     2.25905002    -1.07622220
    4 O                    8.0000     1.11456609     2.64890066     0.96823320
    5 H                    1.0000     0.24864859     3.06706943     1.08586371
    6 C                   -0.0249    -0.12254302     0.68607064     0.12973679

@ Optimizing mm_solute  region with lbfgs
@ and esp fitted charges for the qm region
@ Step       Energy      Delta E   Gmax     Grms     Xrms     Xmax   Walltime
@ ---- ---------------- -------- -------- -------- -------- -------- --------
@    1       0.67647660  6.8D-01  0.01337  0.00328  0.00582  0.02406     43.8
@    2       0.67581652 -6.6D-04  0.00992  0.00252  0.00343  0.01536     43.8
@    3       0.67440578 -1.4D-03  0.00787  0.00261  0.01569  0.06769     43.9
@    4       0.67396310 -4.4D-04  0.01804  0.00403  0.01135  0.03456     43.9
@    5       0.67321341 -7.5D-04  0.01022  0.00315  0.00540  0.01992     43.9
@ Optimizing solvent    region with sd
@ and esp fitted charges for the qm region
@ Step       Energy      Delta E   SGrms     WGrms     Xmax
@ ---- ---------------- -------- -------- -------- --------
@    1       0.68258780 -2.4D-04  0.00000  0.01870  0.02739
@    2       0.68233080 -2.6D-04  0.00000  0.01871  0.03149
@    3       0.68205529 -2.8D-04  0.00000  0.01873  0.03587
@    4       0.68176553 -2.9D-04  0.00000  0.01875  0.04039
@    5       0.68139272 -3.7D-04  0.00000  0.01879  0.04484
         Total DFT energy =     -114.787369308880
@ QM/MM Energy
@ quantum energy                     -114.787369309 (-.301374E+06  kjoule/mol)
@ quantum energy adjusted            -114.787369309 (-.301374E+06  kjoule/mol)
@ quantum energy internal            -114.773043533 (-.301337E+06  kjoule/mol)
@ Bq-nuclear energy                     0.155877606 (0.409257E+03  kjoule/mol)
@ Bq-electron energy                   -0.170203381 (-.446869E+03  kjoule/mol)
@ classical energy                      0.678296180 (0.178087E+04  kjoule/mol)
@ total qmmm energy                  -114.109073129 (-.299593E+06  kjoule/mol)
@  OPTIMIZATION FINISHED
 Total times  cpu:       40.0s     wall:       44.8s
