============================== echo of input deck ==============================
echo
#
# The enclosed pair of inputs result in clearly erroneous RI-MP2
# correlation energies (-22 Eh for Ne2).  The culprit appears to be
# multiple f functions in the AO basis.  Salient facts:
#
# 1) Setting int:cando_txs=f eliminates the problem
# 2) Two f functions are required in the AO basis. (cc-pVTZ Ne atom does
#    NOT cause the problem, cc-pVQZ Ne atom does, cc-pVTZ Ne dimer does)
# 3) f functions in the fitting basis do not seem to matter
#
# --
start ne2
title "ne dimer test for 3c integral bug"

geometry
Ne 0.0 0.0 0.0
Ne 0.0 0.0 2.7
end

basis noprint
Ne library cc-pVTZ
end

task scf

basis "ri-mp2 basis" noprint
Ne library cc-PVDZ
end

task rimp2
set int:cando_txs logical false
scf
vectors input atomic
end
task scf
task rimp2
================================================================================

 Output coordinates in angstroms (scale by  1.889725989 to convert to a.u.)

  No.       Tag          Charge          X              Y              Z
 ---- ---------------- ---------- -------------- -------------- --------------
    1 Ne                  10.0000     0.00000000     0.00000000    -1.35000000
    2 Ne                  10.0000     0.00000000     0.00000000     1.35000000

         Total SCF energy =   -257.063778636411

 Vector    2  Occ=2.000000D+00  E=-3.276971D+01  Symmetry=a1g

 Vector    3  Occ=2.000000D+00  E=-1.928535D+00  Symmetry=a1g

 Vector    4  Occ=2.000000D+00  E=-1.926287D+00  Symmetry=a2u

 Vector    5  Occ=2.000000D+00  E=-8.548851D-01  Symmetry=a1g

 Vector    6  Occ=2.000000D+00  E=-8.469796D-01  Symmetry=eu

 Vector    7  Occ=2.000000D+00  E=-8.469796D-01  Symmetry=eu

 Vector    8  Occ=2.000000D+00  E=-8.443352D-01  Symmetry=eg

 Vector    9  Occ=2.000000D+00  E=-8.443352D-01  Symmetry=eg

 Vector   10  Occ=2.000000D+00  E=-8.363829D-01  Symmetry=a2u

 Vector   11  Occ=0.000000D+00  E= 7.700783D-01  Symmetry=a1g

 Vector   12  Occ=0.000000D+00  E= 9.067318D-01  Symmetry=a2u

 Vector   13  Occ=0.000000D+00  E= 9.624232D-01  Symmetry=a1g

 Vector   14  Occ=0.000000D+00  E= 9.981131D-01  Symmetry=eu

 Vector   15  Occ=0.000000D+00  E= 9.981131D-01  Symmetry=eu

 Vector   16  Occ=0.000000D+00  E= 1.059497D+00  Symmetry=eg

 Vector   17  Occ=0.000000D+00  E= 1.059497D+00  Symmetry=eg

 Vector   18  Occ=0.000000D+00  E= 1.265582D+00  Symmetry=a2u

 Vector   19  Occ=0.000000D+00  E= 2.813215D+00  Symmetry=a1g

 Vector   20  Occ=0.000000D+00  E= 2.813671D+00  Symmetry=eu

         Total SCF energy =   -257.063778685959

 Vector    2  Occ=2.000000D+00  E=-3.276971D+01  Symmetry=a1g

 Vector    3  Occ=2.000000D+00  E=-1.928535D+00  Symmetry=a1g

 Vector    4  Occ=2.000000D+00  E=-1.926287D+00  Symmetry=a2u

 Vector    5  Occ=2.000000D+00  E=-8.548848D-01  Symmetry=a1g

 Vector    6  Occ=2.000000D+00  E=-8.469794D-01  Symmetry=eu

 Vector    7  Occ=2.000000D+00  E=-8.469794D-01  Symmetry=eu

 Vector    8  Occ=2.000000D+00  E=-8.443350D-01  Symmetry=eg

 Vector    9  Occ=2.000000D+00  E=-8.443350D-01  Symmetry=eg

 Vector   10  Occ=2.000000D+00  E=-8.363825D-01  Symmetry=a2u

 Vector   11  Occ=0.000000D+00  E= 7.700786D-01  Symmetry=a1g

 Vector   12  Occ=0.000000D+00  E= 9.067313D-01  Symmetry=a2u

 Vector   13  Occ=0.000000D+00  E= 9.624233D-01  Symmetry=a1g

 Vector   14  Occ=0.000000D+00  E= 9.981132D-01  Symmetry=eu

 Vector   15  Occ=0.000000D+00  E= 9.981132D-01  Symmetry=eu

 Vector   16  Occ=0.000000D+00  E= 1.059497D+00  Symmetry=eg

 Vector   17  Occ=0.000000D+00  E= 1.059497D+00  Symmetry=eg

 Vector   18  Occ=0.000000D+00  E= 1.265582D+00  Symmetry=a2u

 Vector   19  Occ=0.000000D+00  E= 2.813215D+00  Symmetry=a1g

 Vector   20  Occ=0.000000D+00  E= 2.813671D+00  Symmetry=eu

          Total MP2 energy          -257.661562409473
         Total SCF energy =   -257.063778685635

 Vector    2  Occ=2.000000D+00  E=-3.276971D+01  Symmetry=a1g

 Vector    3  Occ=2.000000D+00  E=-1.928535D+00  Symmetry=a1g

 Vector    4  Occ=2.000000D+00  E=-1.926287D+00  Symmetry=a2u

 Vector    5  Occ=2.000000D+00  E=-8.548848D-01  Symmetry=a1g

 Vector    6  Occ=2.000000D+00  E=-8.469794D-01  Symmetry=eu

 Vector    7  Occ=2.000000D+00  E=-8.469794D-01  Symmetry=eu

 Vector    8  Occ=2.000000D+00  E=-8.443350D-01  Symmetry=eg

 Vector    9  Occ=2.000000D+00  E=-8.443350D-01  Symmetry=eg

 Vector   10  Occ=2.000000D+00  E=-8.363825D-01  Symmetry=a2u

 Vector   11  Occ=0.000000D+00  E= 7.700786D-01  Symmetry=a1g

 Vector   12  Occ=0.000000D+00  E= 9.067313D-01  Symmetry=a2u

 Vector   13  Occ=0.000000D+00  E= 9.624233D-01  Symmetry=a1g

 Vector   14  Occ=0.000000D+00  E= 9.981132D-01  Symmetry=eu

 Vector   15  Occ=0.000000D+00  E= 9.981132D-01  Symmetry=eu

 Vector   16  Occ=0.000000D+00  E= 1.059497D+00  Symmetry=eg

 Vector   17  Occ=0.000000D+00  E= 1.059497D+00  Symmetry=eg

 Vector   18  Occ=0.000000D+00  E= 1.265582D+00  Symmetry=a2u

 Vector   19  Occ=0.000000D+00  E= 2.813215D+00  Symmetry=a1g

 Vector   20  Occ=0.000000D+00  E= 2.813671D+00  Symmetry=eu

       Multipole analysis of the density wrt the origin
       ------------------------------------------------

     L   x y z        total         open         nuclear
     -   - - -        -----         ----         -------
     0   0 0 0      0.000000      0.000000     20.000000

     1   1 0 0      0.000000      0.000000      0.000000
     1   0 1 0      0.000000      0.000000      0.000000
     1   0 0 1      0.000000      0.000000      0.000000

     2   2 0 0     -6.181818      0.000000      0.000000
     2   1 1 0      0.000000      0.000000      0.000000
     2   1 0 1      0.000000      0.000000      0.000000
     2   0 2 0     -6.181818      0.000000      0.000000
     2   0 1 1      0.000000      0.000000      0.000000

         Total SCF energy =   -257.063778685635
          Total MP2 energy          -257.661562409137
 Total times  cpu:        1.0s     wall:        1.2s
