============================== echo of input deck ==============================
echo
start

# Assorted transition state optimizations, mostly
# from Peng and Schlegel

basis
  c library 3-21g
  o library 3-21g
  f library 3-21g
 si library 3-21g
  h library 3-21g
end

scf; print low; thresh 1e-6; end
driver; nptopt 100; end

title "Pyrolysis of ethylformate -> Formic acid + ethylene"
geometry
   zcoord
     bond 3 9
     bond 5 4
     bond 8 9
   end
   C  0.65111318     0.46328833    -1.08643832
   H  1.08681996     0.76810268    -2.02774590
   O  0.29629756     1.41036892    -0.29424436
   O  0.51390505    -0.74594157    -0.82856238
   C -0.57300315    -1.19758410     0.78842586
   H  0.26225055    -1.77654557     1.11879351
   H -1.23975601    -1.70057595     0.12117995
   C -0.94488353    -0.03596991     1.44113180
   H -0.30178707     0.88139979     0.60157204
   H -1.96838927     0.28671853     1.35327241
   H -0.45778276     0.19248540     2.37432354
end
scf; singlet; rhf; end
driver; clear; end
task scf saddle

title "CH3 + HF -> CH4 + F"
geometry
  zmatrix
    c
    h 1 ch0
    h 1 ch  2 a1
    h 1 ch  2 a1  3  a120
    h 1 ch  2 a1  3 -a120
    x 2 one 1 a90 3  a180
    f 2 hf  6 a90 1  a180
  variables
    ch0    1.25
    hf     1.25
    a1   100.
    ch     1.08
  constants
    one    1.0
    a90   90.0
    a120 120.0
    a180 180.0
  end
end
scf; uhf; doublet; end
driver; clear; end
task scf saddle

title "H3CO <-> H2COH"
geometry
  c    -0.01768833     0.00000000    -0.68118028
  o    -0.01768833     0.00000000     0.79881972
  h     1.29788134     0.00000000    -0.20235208
  h    -0.52512235    -0.87890150    -1.05056203
  h    -0.52512235     0.87890150    -1.05056203
end
scf; uhf; doublet; end
driver; clear; end
task scf saddle

title "SiH2 + H2 <-> SiH4"
geometry
  zmatrix
    si
    x 1 1.0
    h 1 hsi 2 asi
    h 1 hsi 2 asi 3 180.
    h 1 hsi5 2 hsix 3 90.
    h 1 hsi6 5 hsih 2 180.
  variables
    hsi 1.48
    asi 55.0
    hsi5 1.80
    hsi6 1.80
    hsix 95.0
    hsih 50.0
  end
end
scf; singlet; rhf; end
driver; clear; end
task scf saddle

title "H2CCH2 + HF <-> H3CCFH2"
geometry
  zmatrix
    c
    c 1 cc
    h 1 hc  2 ah
    f 2 fc  1 af 3  0.
    h 1 hc1 2 a1 4  xd1
    h 1 hc1 2 a1 4 -xd1
    h 2 hc2 1 a2 4  xd2
    h 2 hc2 1 a2 4 -xd2
  variables
    cc 1.43
    hc 1.50
    fc 1.90
    hc1 1.08
    hc2 1.08
    ah 100.
    af 100.
    a1 115
    a2 115.
    xd1 105.
    xd2 105.
  end
end
scf; singlet; rhf; end
driver; clear; end
task scf saddle

title "Claisen rearrangement"
geometry
  zmatrix
    c
    c 1 r1
    c 2 r2 1 a2
    o 3 r3 2 a3 1 xd3
    c 4 r4 3 a4 2 xd4
    c 5 r5 4 a5 3 xd5
    h 1 rh1 2 ah1 3 xdh1
    h 1 rh2 2 ah2 3 xdh2
    h 2 rh3 1 ah3 3 xdh3
    h 3 rh4 2 ah4 1 xdh4
    h 3 rh5 2 ah5 1 xdh5
    h 6 rh6 5 ah6 4 xdh6
    h 6 rh7 5 ah7 4 xdh7
    h 5 rh8 6 ah8 4 xdh8
  variables
    r1 1.42
    r2 1.405
    r3 2.008
    r4 1.310
    r5 1.410
    a2 120.
    a3 101.1
    a4 103.5
    a5 120.
    xd3 -66.8
    xd4 56.6
    xd5 -67.8
    rh1 1.09
    rh2 1.09
    rh3 1.09
    rh4 1.09
    rh5 1.09
    rh6 1.09
    rh7 1.09
    rh8 1.09
    ah1 115.
    ah2 115.
    ah3 120.
    ah4 115.
    ah5 115.
    ah6 115.
    ah7 115.
    ah8 120.
    xdh1 -30.
    xdh2 180.
    xdh3 180.
    xdh4 180.
    xdh5 30.
    xdh6 180.
    xdh7 -30.
    xdh8 180.
  end
end
scf; singlet; rhf; end
driver; clear; end
task scf saddle
================================================================================

         Total SCF energy =   -265.240010854110
@ Step       Energy      Delta E   Gmax     Grms     Xrms     Xmax   Walltime
@ ---- ---------------- -------- -------- -------- -------- -------- --------
@    0    -265.24001085  0.0E+00  0.01559  0.00280  0.00000  0.00000     11.0
         Total SCF energy =   -265.239635232085
@    1    -265.23963523  3.8E-04  0.01620  0.00287  0.00380  0.00824     20.3
         Total SCF energy =   -265.239057884965
@    2    -265.23905788  5.8E-04  0.00733  0.00176  0.01390  0.03715     30.1
         Total SCF energy =   -265.239489651292
@    3    -265.23948965 -4.3E-04  0.00533  0.00089  0.01656  0.04505     39.6
         Total SCF energy =   -265.239569494551
@    4    -265.23956949 -8.0E-05  0.00280  0.00051  0.00871  0.02226     48.5
         Total SCF energy =   -265.239575998555
@    5    -265.23957600 -6.5E-06  0.00179  0.00041  0.00399  0.01134     57.5
         Total SCF energy =   -265.239584218006
@    6    -265.23958422 -8.2E-06  0.00137  0.00030  0.00224  0.00647     66.7
         Total SCF energy =   -265.239588303176
@    7    -265.23958830 -4.1E-06  0.00045  0.00008  0.00193  0.00410     75.6
         Total SCF energy =   -265.239589542973
@    8    -265.23958954 -1.2E-06  0.00042  0.00009  0.00126  0.00371     84.5
         Total SCF energy =   -265.239590116244
@    9    -265.23959012 -5.7E-07  0.00004  0.00002  0.00050  0.00123     93.4
@    9    -265.23959012 -5.7E-07  0.00004  0.00002  0.00050  0.00123     93.4
         Total SCF energy =   -138.779511125657
@ Step       Energy      Delta E   Gmax     Grms     Xrms     Xmax   Walltime
@ ---- ---------------- -------- -------- -------- -------- -------- --------
@    0    -138.77951113  0.0E+00  0.01591  0.00800  0.00000  0.00000     94.8
         Total SCF energy =   -138.778600166279
@    1    -138.77860017  9.1E-04  0.01336  0.00751  0.00408  0.01225     95.8
         Total SCF energy =   -138.777891316112
@    2    -138.77789132  7.1E-04  0.00945  0.00427  0.02032  0.05316     96.9
         Total SCF energy =   -138.779018733650
@    3    -138.77901873 -1.1E-03  0.00511  0.00232  0.02071  0.04802     98.0
         Total SCF energy =   -138.779586327603
@    4    -138.77958633 -5.7E-04  0.00138  0.00063  0.01862  0.03724     99.1
         Total SCF energy =   -138.779629331719
@    5    -138.77962933 -4.3E-05  0.00009  0.00003  0.00674  0.01335    100.1
         Total SCF energy =   -138.779629332104
@    6    -138.77962933 -3.8E-10  0.00001  0.00000  0.00017  0.00042    101.0
@    6    -138.77962933 -3.8E-10  0.00001  0.00000  0.00017  0.00042    101.0
         Total SCF energy =   -113.706031673142
@ Step       Energy      Delta E   Gmax     Grms     Xrms     Xmax   Walltime
@ ---- ---------------- -------- -------- -------- -------- -------- --------
@    0    -113.70603167  0.0E+00  0.08198  0.03537  0.00000  0.00000    102.3
         Total SCF energy =   -113.694173915060
@    1    -113.69417392  1.2E-02  0.08125  0.03435  0.02443  0.06000    103.6
         Total SCF energy =   -113.692438943255
@    2    -113.69243894  1.7E-03  0.07263  0.03058  0.02836  0.07205    104.7
         Total SCF energy =   -113.693016232269
@    3    -113.69301623 -5.8E-04  0.06176  0.02559  0.03519  0.08543    105.9
         Total SCF energy =   -113.693488209419
@    4    -113.69348821 -4.7E-04  0.04845  0.01933  0.03844  0.09211    107.0
         Total SCF energy =   -113.693425333779
@    5    -113.69342533  6.3E-05  0.03130  0.01223  0.03381  0.09353    108.1
         Total SCF energy =   -113.693458788756
@    6    -113.69345879 -3.3E-05  0.00972  0.00403  0.03154  0.08886    109.2
         Total SCF energy =   -113.693637988771
@    7    -113.69363799 -1.8E-04  0.00159  0.00064  0.01645  0.04072    110.3
         Total SCF energy =   -113.693647495759
@    8    -113.69364750 -9.5E-06  0.00039  0.00021  0.00352  0.01029    111.3
         Total SCF energy =   -113.693648888089
@    9    -113.69364889 -1.4E-06  0.00011  0.00005  0.00096  0.00224    112.3
         Total SCF energy =   -113.693648910514
@   10    -113.69364891 -2.2E-08  0.00002  0.00001  0.00010  0.00017    113.1
@   10    -113.69364891 -2.2E-08  0.00002  0.00001  0.00010  0.00017    113.1
         Total SCF energy =   -289.552220493615
@ Step       Energy      Delta E   Gmax     Grms     Xrms     Xmax   Walltime
@ ---- ---------------- -------- -------- -------- -------- -------- --------
@    0    -289.55222049  0.0E+00  0.05495  0.02078  0.00000  0.00000    113.8
         Total SCF energy =   -289.547172342822
@    1    -289.54717234  5.0E-03  0.05684  0.02036  0.01541  0.04281    114.5
         Total SCF energy =   -289.546721540950
@    2    -289.54672154  4.5E-04  0.05378  0.01750  0.03117  0.09427    115.0
         Total SCF energy =   -289.550676753888
@    3    -289.55067675 -4.0E-03  0.04663  0.01451  0.03975  0.11274    115.6
         Total SCF energy =   -289.555391212455
@    4    -289.55539121 -4.7E-03  0.03985  0.01248  0.02435  0.07846    116.1
         Total SCF energy =   -289.559212829239
@    5    -289.55921283 -3.8E-03  0.03089  0.00995  0.02833  0.07149    116.7
         Total SCF energy =   -289.562214900275
@    6    -289.56221490 -3.0E-03  0.02038  0.00695  0.02374  0.07972    117.2
         Total SCF energy =   -289.564078506168
@    7    -289.56407851 -1.9E-03  0.00898  0.00384  0.02473  0.06297    117.8
         Total SCF energy =   -289.564890690966
@    8    -289.56489069 -8.1E-04  0.00392  0.00128  0.02306  0.05053    118.3
         Total SCF energy =   -289.564991935887
@    9    -289.56499194 -1.0E-04  0.00129  0.00057  0.01004  0.03389    118.9
         Total SCF energy =   -289.565004869944
@   10    -289.56500487 -1.3E-05  0.00093  0.00036  0.00283  0.00999    119.4
         Total SCF energy =   -289.565014717824
@   11    -289.56501472 -9.8E-06  0.00061  0.00030  0.00290  0.00945    120.0
         Total SCF energy =   -289.565023206148
@   12    -289.56502321 -8.5E-06  0.00058  0.00020  0.00353  0.00922    120.5
         Total SCF energy =   -289.565025612971
@   13    -289.56502561 -2.4E-06  0.00029  0.00010  0.00146  0.00313    121.0
         Total SCF energy =   -289.565026110839
@   14    -289.56502611 -5.0E-07  0.00009  0.00005  0.00056  0.00155    121.5
@   14    -289.56502611 -5.0E-07  0.00009  0.00005  0.00056  0.00155    121.5
         Total SCF energy =   -176.965247742674
@ Step       Energy      Delta E   Gmax     Grms     Xrms     Xmax   Walltime
         Total SCF energy =   -176.951836577329
@    3    -176.95183658 -3.3E-03  0.09113  0.02960  0.04086  0.13611    129.1
         Total SCF energy =   -176.957642801892
@    4    -176.95764280 -5.8E-03  0.08535  0.02764  0.04643  0.15608    131.0
         Total SCF energy =   -176.967848781785
@    5    -176.96784878 -1.0E-02  0.07624  0.02483  0.04665  0.17982    132.8
         Total SCF energy =   -176.973100501806
@    6    -176.97310050 -5.3E-03  0.06665  0.02202  0.03409  0.12711    134.7
         Total SCF energy =   -176.978545463065
@    7    -176.97854546 -5.4E-03  0.05325  0.01776  0.04274  0.11552    136.6
         Total SCF energy =   -176.982496484262
@    8    -176.98249648 -4.0E-03  0.03691  0.01254  0.03559  0.12253    138.5
         Total SCF energy =   -176.984126917045
@    9    -176.98412692 -1.6E-03  0.01536  0.00545  0.03890  0.11421    140.4
         Total SCF energy =   -176.984011200161
@   10    -176.98401120  1.2E-04  0.00768  0.00295  0.03068  0.09447    142.3
         Total SCF energy =   -176.984530743271
@   11    -176.98453074 -5.2E-04  0.00639  0.00280  0.01950  0.05607    144.2
         Total SCF energy =   -176.984412423600
@   12    -176.98441242  1.2E-04  0.00496  0.00168  0.02023  0.05521    146.0
         Total SCF energy =   -176.984478715422
@   13    -176.98447872 -6.6E-05  0.00379  0.00120  0.01052  0.03671    147.8
         Total SCF energy =   -176.984450134857
@   14    -176.98445013  2.9E-05  0.00313  0.00142  0.01469  0.03585    149.7
         Total SCF energy =   -176.984523642776
@   15    -176.98452364 -7.4E-05  0.00061  0.00023  0.01045  0.02621    151.5
         Total SCF energy =   -176.984525050342
@   16    -176.98452505 -1.4E-06  0.00048  0.00018  0.00143  0.00354    153.3
         Total SCF energy =   -176.984525063839
@   17    -176.98452506 -1.3E-08  0.00014  0.00006  0.00118  0.00280    155.1
         Total SCF energy =   -176.984525267945
@   18    -176.98452527 -2.0E-07  0.00009  0.00003  0.00057  0.00168    156.9
@   18    -176.98452527 -2.0E-07  0.00009  0.00003  0.00057  0.00168    156.9
         Total SCF energy =   -267.218989143467
@ Step       Energy      Delta E   Gmax     Grms     Xrms     Xmax   Walltime
@ ---- ---------------- -------- -------- -------- -------- -------- --------
@    0    -267.21898914  0.0E+00  0.06016  0.02039  0.00000  0.00000    182.1
         Total SCF energy =   -267.203265537123
@    1    -267.20326554  1.6E-02  0.07687  0.02494  0.05422  0.14503    204.6
         Total SCF energy =   -267.210396587535
@    2    -267.21039659 -7.1E-03  0.06449  0.02049  0.10056  0.28120    226.0
         Total SCF energy =   -267.218769358045
@    3    -267.21876936 -8.4E-03  0.02785  0.01212  0.05412  0.15952    247.7
         Total SCF energy =   -267.226302066503
@    4    -267.22630207 -7.5E-03  0.02644  0.00762  0.03476  0.09517    269.5
         Total SCF energy =   -267.232015653603
@    5    -267.23201565 -5.7E-03  0.01357  0.00575  0.05430  0.14688    291.1
         Total SCF energy =   -267.233320406432
@    6    -267.23332041 -1.3E-03  0.02989  0.00753  0.09121  0.22691    313.6
         Total SCF energy =   -267.234470971022
@    7    -267.23447097 -1.2E-03  0.01206  0.00467  0.06989  0.24603    335.7
         Total SCF energy =   -267.236517394713
@    8    -267.23651739 -2.0E-03  0.00863  0.00326  0.07199  0.18367    357.4
         Total SCF energy =   -267.237227777272
@    9    -267.23722778 -7.1E-04  0.00630  0.00238  0.02446  0.08070    379.4
         Total SCF energy =   -267.237710395451
@   10    -267.23771040 -4.8E-04  0.00661  0.00178  0.03069  0.09318    401.5
         Total SCF energy =   -267.238108475545
@   11    -267.23810848 -4.0E-04  0.00409  0.00114  0.02554  0.07578    423.2
         Total SCF energy =   -267.238210539481
@   12    -267.23821054 -1.0E-04  0.00389  0.00152  0.03230  0.08811    445.0
         Total SCF energy =   -267.238301247222
@   13    -267.23830125 -9.1E-05  0.00727  0.00222  0.03366  0.10023    466.8
         Total SCF energy =   -267.238232712398
@   14    -267.23823271  6.9E-05  0.01043  0.00318  0.02679  0.07346    488.8
         Total SCF energy =   -267.238173412177
@   15    -267.23817341  5.9E-05  0.00912  0.00212  0.03082  0.07043    511.2
         Total SCF energy =   -267.238309985619
@   16    -267.23830999 -1.4E-04  0.00560  0.00169  0.03082  0.09232    533.2
         Total SCF energy =   -267.238465195267
@   17    -267.23846520 -1.6E-04  0.00604  0.00152  0.02716  0.06678    555.4
         Total SCF energy =   -267.238390976139
@   18    -267.23839098  7.4E-05  0.00640  0.00173  0.02016  0.06005    577.5
         Total SCF energy =   -267.238437482884
@   19    -267.23843748 -4.7E-05  0.00435  0.00117  0.01611  0.03561    599.6
         Total SCF energy =   -267.238374079921
@   20    -267.23837408  6.3E-05  0.00347  0.00115  0.03573  0.08308    621.7
         Total SCF energy =   -267.238543697776
@   21    -267.23854370 -1.7E-04  0.00197  0.00058  0.01824  0.04370    643.5
         Total SCF energy =   -267.238506589474
@   22    -267.23850659  3.7E-05  0.00216  0.00074  0.02692  0.07161    665.2
         Total SCF energy =   -267.238567458059
@   23    -267.23856746 -6.1E-05  0.00085  0.00029  0.00998  0.02627    685.6
         Total SCF energy =   -267.238524675202
@   24    -267.23852468  4.3E-05  0.00165  0.00058  0.02149  0.05786    707.5
         Total SCF energy =   -267.238566871943
@   25    -267.23856687 -4.2E-05  0.00100  0.00033  0.00978  0.02577    727.9
         Total SCF energy =   -267.238550196792
@   26    -267.23855020  1.7E-05  0.00174  0.00048  0.01879  0.04990    749.9
         Total SCF energy =   -267.238529693966
@   27    -267.23852969  2.1E-05  0.00255  0.00059  0.00965  0.02365    771.4
         Total SCF energy =   -267.238585253452
@   28    -267.23858525 -5.6E-05  0.00044  0.00010  0.01173  0.03238    790.3
         Total SCF energy =   -267.238576723745
@   29    -267.23857672  8.5E-06  0.00126  0.00027  0.00391  0.00946    808.5
         Total SCF energy =   -267.238586375325
@   30    -267.23858638 -9.7E-06  0.00005  0.00001  0.00283  0.00721    827.1
         Total SCF energy =   -267.238586375449
@   31    -267.23858638 -1.2E-10  0.00005  0.00001  0.00018  0.00043    843.9
@   31    -267.23858638 -1.2E-10  0.00005  0.00001  0.00018  0.00043    843.9

 Output coordinates in angstroms (scale by  1.889725989 to convert to a.u.)

  No.       Tag          Charge          X              Y              Z
 ---- ---------------- ---------- -------------- -------------- --------------
    1 c                    6.0000    -1.05401257     1.10621368    -0.33503064
    2 c                    6.0000     0.16643565     1.44251502     0.21971835
    3 c                    6.0000     1.31770159     0.83988429    -0.26859716
    4 o                    8.0000     1.06568055    -0.95219898     0.22752400
    5 c                    6.0000    -0.09271979    -1.33043031    -0.19662058
    6 c                    6.0000    -1.26813956    -0.90164643     0.37054287
    7 h                    1.0000    -1.12346049     0.86774848    -1.37912884
    8 h                    1.0000    -1.96411293     1.48033629     0.09450754
    9 h                    1.0000     0.18390837     1.84449799     1.21477146
   10 h                    1.0000     2.25134532     0.98457770     0.23406358
   11 h                    1.0000     1.40302229     0.63093014    -1.31706700
   12 h                    1.0000    -2.19980612    -1.25536939    -0.03018564
   13 h                    1.0000    -1.27486629    -0.59619880     1.39623313
   14 h                    1.0000    -0.14938732    -1.81518150    -1.16170667

 Total times  cpu:      829.1s     wall:      843.9s
