============================== echo of input deck ==============================
echo
start h2o

memory global 40 mb stack 23 mb heap 5 mb

geometry units au
 O 0       0        0
 H 0       1.430   -1.107
 H 0      -1.430   -1.107
end

basis
  * library 6-31g*
end

task scf

basis
  * library 6-31g*
  O S
  0.01 1.0
  O p
  0.01 1.0
  O d
  0.01 1.0
end

scf
  vectors atomic
end

task scf
================================================================================

 Output coordinates in a.u. (scale by  1.000000000 to convert to a.u.)

  No.       Tag          Charge          X              Y              Z
 ---- ---------------- ---------- -------------- -------------- --------------
    1 O                    8.0000     0.00000000     0.00000000     0.22140000
    2 H                    1.0000    -1.43000000     0.00000000    -0.88560000
    3 H                    1.0000     1.43000000     0.00000000    -0.88560000

         Total SCF energy =    -76.010538615958

 Vector    2  Occ=2.000000D+00  E=-1.341930D+00  Symmetry=a1

 Vector    3  Occ=2.000000D+00  E=-7.070590D-01  Symmetry=b1

 Vector    4  Occ=2.000000D+00  E=-5.710706D-01  Symmetry=a1

 Vector    5  Occ=2.000000D+00  E=-4.979252D-01  Symmetry=b2

 Vector    6  Occ=0.000000D+00  E= 2.108019D-01  Symmetry=a1

 Vector    7  Occ=0.000000D+00  E= 3.042325D-01  Symmetry=b1

 Vector    8  Occ=0.000000D+00  E= 1.022734D+00  Symmetry=b1

 Vector    9  Occ=0.000000D+00  E= 1.131842D+00  Symmetry=a1

 Vector   10  Occ=0.000000D+00  E= 1.167786D+00  Symmetry=b2

 Vector   11  Occ=0.000000D+00  E= 1.171944D+00  Symmetry=a1

 Vector   12  Occ=0.000000D+00  E= 1.380936D+00  Symmetry=b1

 Vector   13  Occ=0.000000D+00  E= 1.434077D+00  Symmetry=a1

 Vector   14  Occ=0.000000D+00  E= 2.020054D+00  Symmetry=a1

 Vector   15  Occ=0.000000D+00  E= 2.033721D+00  Symmetry=a2

         Total SCF energy =    -76.011422511002

 Vector    2  Occ=2.000000D+00  E=-1.343554D+00  Symmetry=a1

 Vector    3  Occ=2.000000D+00  E=-7.086346D-01  Symmetry=b1

 Vector    4  Occ=2.000000D+00  E=-5.724633D-01  Symmetry=a1

 Vector    5  Occ=2.000000D+00  E=-4.992728D-01  Symmetry=b2

 Vector    6  Occ=0.000000D+00  E= 7.778867D-03  Symmetry=a1

 Vector    7  Occ=0.000000D+00  E= 2.341610D-02  Symmetry=b1

 Vector    8  Occ=0.000000D+00  E= 2.485893D-02  Symmetry=a1

 Vector    9  Occ=0.000000D+00  E= 2.596697D-02  Symmetry=b2

 Vector   10  Occ=0.000000D+00  E= 3.473266D-02  Symmetry=a1

 Vector   11  Occ=0.000000D+00  E= 3.499994D-02  Symmetry=a2

 Vector   12  Occ=0.000000D+00  E= 3.579433D-02  Symmetry=b1

 Vector   13  Occ=0.000000D+00  E= 3.660212D-02  Symmetry=a1

 Vector   14  Occ=0.000000D+00  E= 3.674505D-02  Symmetry=b2

 Vector   15  Occ=0.000000D+00  E= 5.356677D-02  Symmetry=a1

 Vector   16  Occ=0.000000D+00  E= 2.666752D-01  Symmetry=a1

 Vector   17  Occ=0.000000D+00  E= 3.115505D-01  Symmetry=b1

 Vector   18  Occ=0.000000D+00  E= 1.026884D+00  Symmetry=b1

       Multipole analysis of the density wrt the origin
       ------------------------------------------------

     L   x y z        total         open         nuclear
     -   - - -        -----         ----         -------
     0   0 0 0      0.000000      0.000000     10.000000

     1   1 0 0      0.000000      0.000000      0.000000
     1   0 1 0      0.000000      0.000000      0.000000
     1   0 0 1     -0.881112      0.000000      0.000000

     2   2 0 0     -3.114319      0.000000      4.089800
     2   1 1 0      0.000000      0.000000      0.000000
     2   1 0 1      0.000000      0.000000      0.000000
     2   0 2 0     -5.470148      0.000000      0.000000
     2   0 1 1      0.000000      0.000000      0.000000

 Total times  cpu:        0.2s     wall:        0.4s
