 Output coordinates in angstroms (scale by  1.889725989 to convert to a.u.)

  No.       Tag          Charge          X              Y              Z
 ---- ---------------- ---------- -------------- -------------- --------------
    1 Si                  14.0000      .98475271     2.14828093     2.10986640
    2 Si                  14.0000     2.84132871    -1.24717007     -.09462060
    3 Si                  14.0000    -2.22442229    -2.23794407     1.70083640
    4 Si                  14.0000    -2.37522329     1.47405993     -.60769160
    5 H                    1.0000    -3.43713329    -1.84893007      .93967540
    6 H                    1.0000      .31114971     3.27918293     1.42525540
    7 H                    1.0000     3.60198771    -1.06648207    -1.35561860
    8 H                    1.0000      .94036871     2.25996893     3.58869340
    9 H                    1.0000     2.79846071    -2.65982707      .35698140
   10 H                    1.0000    -2.08259729     2.84718493     -.12783360
   11 H                    1.0000    -2.30627629    -1.69754507     3.08020340
   12 H                    1.0000     3.50171371     -.49210507      .99860040
   13 H                    1.0000    -3.37504429      .91856793      .33737640
   14 H                    1.0000    -2.03751529    -3.70978407     1.69003240
   15 H                    1.0000     2.42698171     2.09828693     1.76512940
   16 H                    1.0000    -2.93430029     1.64720193    -1.97107660
   17 Al                  13.0000     -.10040678     -.32005126      .54236498
   18 O                    8.0000     -.97052403      .56207195     -.78961078
   19 O                    8.0000     1.33359485     -.61025706     -.50645918
   20 O                    8.0000      .21632561      .74269291     1.82247734
   21 O                    8.0000     -.87655349    -1.76630028      .91937093
   22 Ga                  31.0000      .51045738      .27333070    -2.17323437
   23 H                    1.0000      .04735097     -.85837172    -3.11377610
   24 H                    1.0000     1.23311709     1.62323229    -2.37781687

         Total DFT energy =  -3634.734718320825

                       DFT Final Molecular Orbital Analysis
                       ------------------------------------

 Vector   39  Occ=2.000000D+00  E=-1.021237D+00

 Vector   50  Occ=2.000000D+00  E=-5.461465D-01

 Vector   51  Occ=2.000000D+00  E=-5.319843D-01

 Vector   52  Occ=2.000000D+00  E=-5.027697D-01

 Vector   53  Occ=2.000000D+00  E=-4.805081D-01

 Vector   54  Occ=2.000000D+00  E=-4.513520D-01

 Vector   55  Occ=2.000000D+00  E=-4.342476D-01

 Vector   56  Occ=2.000000D+00  E=-4.278191D-01

 Vector   57  Occ=2.000000D+00  E=-4.267796D-01

 Vector   58  Occ=2.000000D+00  E=-4.088428D-01

 Vector   59  Occ=2.000000D+00  E=-4.019044D-01

 Vector   60  Occ=2.000000D+00  E=-3.939619D-01

 Vector   61  Occ=2.000000D+00  E=-3.794121D-01

 Vector   62  Occ=2.000000D+00  E=-3.761743D-01

 Vector   63  Occ=2.000000D+00  E=-3.687782D-01

 Vector   64  Occ=2.000000D+00  E=-3.648556D-01

 Vector   65  Occ=2.000000D+00  E=-3.547482D-01

 Vector   66  Occ=2.000000D+00  E=-3.514509D-01

 Vector   67  Occ=2.000000D+00  E=-3.503003D-01

 Vector   68  Occ=2.000000D+00  E=-3.341134D-01

 Vector   69  Occ=2.000000D+00  E=-3.218533D-01

 Vector   70  Occ=2.000000D+00  E=-3.055100D-01

 Vector   71  Occ=2.000000D+00  E=-3.011288D-01

 Vector   72  Occ=2.000000D+00  E=-2.975167D-01

 Vector   73  Occ=2.000000D+00  E=-2.945253D-01

 Vector   74  Occ=0.000000D+00  E=-4.374765D-02

 Vector   75  Occ=0.000000D+00  E=-3.865961D-02

 Vector   76  Occ=0.000000D+00  E= 1.032042D-02

 Vector   77  Occ=0.000000D+00  E= 1.324159D-02

 Vector   78  Occ=0.000000D+00  E= 1.958863D-02

 Vector   79  Occ=0.000000D+00  E= 2.425460D-02

 Vector   80  Occ=0.000000D+00  E= 2.775489D-02

 Vector   81  Occ=0.000000D+00  E= 4.239836D-02

 Vector   82  Occ=0.000000D+00  E= 4.631446D-02

 Vector   83  Occ=0.000000D+00  E= 5.317002D-02

 Vector   84  Occ=0.000000D+00  E= 5.456772D-02

 Vector   85  Occ=0.000000D+00  E= 6.449994D-02

 Vector   86  Occ=0.000000D+00  E= 7.523990D-02

 Vector   87  Occ=0.000000D+00  E= 8.129873D-02

 Vector   88  Occ=0.000000D+00  E= 8.453272D-02

 Vector   89  Occ=0.000000D+00  E= 8.857731D-02

 Vector   90  Occ=0.000000D+00  E= 9.377993D-02

 Vector   91  Occ=0.000000D+00  E= 9.730170D-02

 Vector   92  Occ=0.000000D+00  E= 1.023178D-01

 Vector   93  Occ=0.000000D+00  E= 1.096103D-01

 Vector   94  Occ=0.000000D+00  E= 1.181076D-01

 Vector   95  Occ=0.000000D+00  E= 1.256203D-01

 Vector   96  Occ=0.000000D+00  E= 1.391505D-01

 Vector   97  Occ=0.000000D+00  E= 1.470587D-01

 Vector   98  Occ=0.000000D+00  E= 1.562478D-01

 Vector   99  Occ=0.000000D+00  E= 1.632807D-01

 Vector  100  Occ=0.000000D+00  E= 1.667819D-01

 Vector  101  Occ=0.000000D+00  E= 1.708131D-01

 Vector  102  Occ=0.000000D+00  E= 1.829552D-01

 Vector  103  Occ=0.000000D+00  E= 1.933325D-01

 Vector  104  Occ=0.000000D+00  E= 1.987660D-01

 Vector  105  Occ=0.000000D+00  E= 2.064088D-01

 Vector  106  Occ=0.000000D+00  E= 2.131679D-01

 Vector  107  Occ=0.000000D+00  E= 2.161731D-01

 Vector  108  Occ=0.000000D+00  E= 2.243161D-01

 Vector  109  Occ=0.000000D+00  E= 2.304663D-01

 Vector  110  Occ=0.000000D+00  E= 2.346751D-01

 Vector  111  Occ=0.000000D+00  E= 2.433659D-01

 Vector  112  Occ=0.000000D+00  E= 2.627264D-01

 Vector  113  Occ=0.000000D+00  E= 2.687600D-01

 Vector  114  Occ=0.000000D+00  E= 2.812014D-01

 Vector  115  Occ=0.000000D+00  E= 2.915667D-01

 Vector  116  Occ=0.000000D+00  E= 2.993288D-01

 Vector  117  Occ=0.000000D+00  E= 3.234671D-01

 Vector  118  Occ=0.000000D+00  E= 3.285354D-01

 Vector  119  Occ=0.000000D+00  E= 3.728644D-01

 Vector  120  Occ=0.000000D+00  E= 3.916561D-01

 Vector  121  Occ=0.000000D+00  E= 4.148877D-01

 Vector  122  Occ=0.000000D+00  E= 4.212797D-01

 Vector  123  Occ=0.000000D+00  E= 4.312247D-01

 Vector  124  Occ=0.000000D+00  E= 4.370777D-01

 Vector  125  Occ=0.000000D+00  E= 4.468277D-01

 Vector  126  Occ=0.000000D+00  E= 4.565016D-01

 Vector  127  Occ=0.000000D+00  E= 4.744045D-01

 Vector  128  Occ=0.000000D+00  E= 4.907806D-01

 Vector  129  Occ=0.000000D+00  E= 5.014240D-01

     Multipole analysis of the density
     ---------------------------------

     L   x y z        total         alpha         beta         nuclear
     -   - - -        -----         -----         ----         -------
     0   0 0 0       .000000    -73.000000    -73.000000    146.000000

     1   1 0 0       .295884       .147942       .147942       .000000
     1   0 1 0       .368595       .184297       .184297       .000000
     1   0 0 1      -.988399      -.494199      -.494199       .000000

     2   2 0 0    -76.726330   -749.780004   -749.780004   1422.833678
     2   1 1 0     -4.124724    -18.809993    -18.809993     33.495263
     2   1 0 1      -.363713     87.897265     87.897265   -176.158243
     2   0 2 0    -84.804011   -558.895937   -558.895937   1032.987863
     2   0 1 1      -.960761     45.701601     45.701601    -92.363962

 Total times  cpu:     2050.2s     wall:     2129.7s
