============================== echo of input deck ==============================
start tce_lr_ccsd_t

echo

geometry units bohr
O      -2.8770919486        1.5073755650        0.3989960497
C      -0.9993929716        0.2223265108       -0.0939400216
C       1.6330980507        1.1263991128       -0.7236778647
O      -1.3167079358       -2.3304840070       -0.1955378962
N       3.5887721300       -0.1900460352        0.6355723246
H       1.7384347574        3.1922914768       -0.2011420479
H       1.8051078216        0.9725472539       -2.8503867814
H       3.3674278149       -2.0653924379        0.5211399625
H       5.2887327108        0.3011058554       -0.0285088728
H      -3.0501350657       -2.7557071585        0.2342441831
end

basis
* library sto-3g
end

scf
thresh 1e-10
tol2e 1e-10
singlet
rhf
end

tce
freeze atomic
tilesize 10
lr-ccsd(t)
thresh 1.0d-7
end

task tce energy

================================================================================

 Output coordinates in a.u. (scale by  1.000000000 to convert to a.u.)

  No.       Tag          Charge          X              Y              Z
 ---- ---------------- ---------- -------------- -------------- --------------
    1 O                    8.0000    -1.51182534     2.99016206    -0.42783828
    2 C                    6.0000    -0.22677629     1.11246308     0.06509779
    3 C                    6.0000    -1.13084889    -1.52002794     0.69483563
    4 O                    8.0000     2.32603423     1.42977804     0.16669566
    5 N                    7.0000     0.18559626    -3.47570202    -0.66441456
    6 H                    1.0000    -3.19674125    -1.62536465     0.17229981
    7 H                    1.0000    -0.97699703    -1.69203771     2.82154455
    8 H                    1.0000     2.06094266    -3.25435771    -0.54998220
    9 H                    1.0000    -0.30555563    -5.17566260    -0.00033336
   10 H                    1.0000     2.75125738     3.16320517    -0.26308642

         Total SCF energy =   -279.104932121547

 Vector    6  Occ=2.000000D+00  E=-1.378358D+00

 Vector    7  Occ=2.000000D+00  E=-1.262063D+00

 Vector    8  Occ=2.000000D+00  E=-1.147356D+00

 Vector    9  Occ=2.000000D+00  E=-9.144175D-01

 Vector   10  Occ=2.000000D+00  E=-7.393796D-01

 Vector   11  Occ=2.000000D+00  E=-6.298644D-01

 Vector   12  Occ=2.000000D+00  E=-6.073345D-01

 Vector   13  Occ=2.000000D+00  E=-5.931554D-01

 Vector   14  Occ=2.000000D+00  E=-5.666575D-01

 Vector   15  Occ=2.000000D+00  E=-5.067861D-01

 Vector   16  Occ=2.000000D+00  E=-5.018053D-01

 Vector   17  Occ=2.000000D+00  E=-4.504676D-01

 Vector   18  Occ=2.000000D+00  E=-3.483694D-01

 Vector   19  Occ=2.000000D+00  E=-3.416789D-01

 Vector   20  Occ=2.000000D+00  E=-3.243026D-01

 Vector   21  Occ=0.000000D+00  E= 3.010083D-01

 Vector   22  Occ=0.000000D+00  E= 5.468606D-01

 Vector   23  Occ=0.000000D+00  E= 5.883044D-01

 Vector   24  Occ=0.000000D+00  E= 6.285995D-01

 Vector   25  Occ=0.000000D+00  E= 6.625233D-01

 Vector   26  Occ=0.000000D+00  E= 6.896512D-01

 Vector   27  Occ=0.000000D+00  E= 7.478098D-01

 Vector   28  Occ=0.000000D+00  E= 7.717517D-01

 Vector   29  Occ=0.000000D+00  E= 7.888585D-01

 Vector   30  Occ=0.000000D+00  E= 9.758004D-01

       Multipole analysis of the density wrt the origin
       ------------------------------------------------

     L   x y z        total         open         nuclear
     -   - - -        -----         ----         -------
     0   0 0 0      0.000000      0.000000     40.000000

     1   1 0 0      0.382360      0.000000      0.000000
     1   0 1 0     -0.377683      0.000000      0.000000
     1   0 0 1      0.566607      0.000000      0.000000

     2   2 0 0    -20.208286      0.000000     92.874955
     2   1 1 0      2.406411      0.000000      5.151374
     2   1 0 1     -0.967480      0.000000     -2.554475
     2   0 2 0    -18.697049      0.000000    246.623557
     2   0 1 1     -1.702131      0.000000     -2.159941

 CCSD total energy / hartree       =      -279.404425590481480
 Total times  cpu:        4.5s     wall:        5.0s
