============================== echo of input deck ==============================
echo

start tce_benzene_2emet_5

# You must set to something globally accessible
permanent_dir /dtemp/jhammond

#memory stack 1700 mb heap 300 mb global 1700 mb

geometry units angstrom
 symmetry d2h
 C               0.000    1.390    0.000
 H               0.000    2.470    0.000
 C               1.204    0.695    0.000
 H               2.139    1.235    0.000
 C               0.000   -1.390    0.000
 H               0.000   -2.470    0.000
 C              -1.204   -0.695    0.000
 H              -2.139   -1.235    0.000
 C               1.204   -0.695    0.000
 H               2.139   -1.235    0.000
 C              -1.204    0.695    0.000
 H              -2.139    1.235    0.000
end

basis spherical
  * library cc-pvdz
end

scf
  singlet
  rhf
  thresh 1.0e-10
  direct
end

tce
  scf
  freeze core
  ccsd
  io ga
  tilesize 15
  2eorb
  2emet 5
  idiskx 1
  attilesize 20
end

task tce energy
================================================================================

 Output coordinates in angstroms (scale by  1.889725989 to convert to a.u.)

  No.       Tag          Charge          X              Y              Z
 ---- ---------------- ---------- -------------- -------------- --------------
    1 C                    6.0000     0.00000000     1.39000000     0.00000000
    2 H                    1.0000     0.00000000     2.47000000     0.00000000
    3 C                    6.0000     1.20400000     0.69500000     0.00000000
    4 H                    1.0000     2.13900000     1.23500000     0.00000000
    5 C                    6.0000     0.00000000    -1.39000000     0.00000000
    6 H                    1.0000     0.00000000    -2.47000000     0.00000000
    7 C                    6.0000    -1.20400000    -0.69500000     0.00000000
    8 H                    1.0000    -2.13900000    -1.23500000     0.00000000
    9 C                    6.0000     1.20400000    -0.69500000     0.00000000
   10 H                    1.0000     2.13900000    -1.23500000     0.00000000
   11 C                    6.0000    -1.20400000     0.69500000     0.00000000
   12 H                    1.0000    -2.13900000     1.23500000     0.00000000

         Total SCF energy =   -230.722311044135

 Vector    7  Occ=2.000000D+00  E=-1.150954D+00  Symmetry=ag

 Vector    8  Occ=2.000000D+00  E=-1.014635D+00  Symmetry=b3u

 Vector    9  Occ=2.000000D+00  E=-1.014524D+00  Symmetry=b2u

 Vector   10  Occ=2.000000D+00  E=-8.227531D-01  Symmetry=b1g

 Vector   11  Occ=2.000000D+00  E=-8.227425D-01  Symmetry=ag

 Vector   12  Occ=2.000000D+00  E=-7.077962D-01  Symmetry=ag

 Vector   13  Occ=2.000000D+00  E=-6.412951D-01  Symmetry=b2u

 Vector   14  Occ=2.000000D+00  E=-6.167246D-01  Symmetry=b3u

 Vector   15  Occ=2.000000D+00  E=-5.856756D-01  Symmetry=b3u

 Vector   16  Occ=2.000000D+00  E=-5.855340D-01  Symmetry=b2u

 Vector   17  Occ=2.000000D+00  E=-5.007524D-01  Symmetry=b1u

 Vector   18  Occ=2.000000D+00  E=-4.911475D-01  Symmetry=b1g

 Vector   19  Occ=2.000000D+00  E=-4.911389D-01  Symmetry=ag

 Vector   20  Occ=2.000000D+00  E=-3.342920D-01  Symmetry=b2g

 Vector   21  Occ=2.000000D+00  E=-3.342116D-01  Symmetry=b3g

 Vector   22  Occ=0.000000D+00  E= 1.385187D-01  Symmetry=b1u

 Vector   23  Occ=0.000000D+00  E= 1.385568D-01  Symmetry=au

 Vector   24  Occ=0.000000D+00  E= 1.830112D-01  Symmetry=ag

 Vector   25  Occ=0.000000D+00  E= 2.203074D-01  Symmetry=b2u

 Vector   26  Occ=0.000000D+00  E= 2.203086D-01  Symmetry=b3u

 Vector   27  Occ=0.000000D+00  E= 2.563774D-01  Symmetry=b1g

 Vector   28  Occ=0.000000D+00  E= 2.563803D-01  Symmetry=ag

 Vector   29  Occ=0.000000D+00  E= 2.736049D-01  Symmetry=b2u

 Vector   30  Occ=0.000000D+00  E= 3.532437D-01  Symmetry=b3g

 Vector   31  Occ=0.000000D+00  E= 4.390883D-01  Symmetry=ag

 Vector   32  Occ=0.000000D+00  E= 4.391555D-01  Symmetry=b1g

 Vector   33  Occ=0.000000D+00  E= 4.718796D-01  Symmetry=b3u

 Vector   34  Occ=0.000000D+00  E= 4.719277D-01  Symmetry=b2u

 Vector   35  Occ=0.000000D+00  E= 5.842603D-01  Symmetry=b3u

       Multipole analysis of the density wrt the origin
       ------------------------------------------------

     L   x y z        total         open         nuclear
     -   - - -        -----         ----         -------
     0   0 0 0      0.000000      0.000000     42.000000

     1   1 0 0      0.000000      0.000000      0.000000
     1   0 1 0      0.000000      0.000000      0.000000
     1   0 0 1      0.000000      0.000000      0.000000

     2   2 0 0    -23.621396      0.000000    189.595189
     2   1 1 0      0.000000      0.000000      0.000000
     2   1 0 1      0.000000      0.000000      0.000000
     2   0 2 0    -23.623393      0.000000    189.553879
     2   0 1 1      0.000000      0.000000      0.000000

 CCSD total energy / hartree       =      -231.557712678719554
 Total times  cpu:      165.9s     wall:      234.4s
