============================== echo of input deck ==============================
#
# Water ROHF-UCCSD/STO-3G
#
# ROHF-UCCSD   -0.0412114
#
start tce_rohf_uccsd

echo

charge 1

geometry units angstrom
zmat
H
O H 0.96
H O 0.96 H 104.0
end
end

basis
* library sto-3g
end

scf
thresh 1e-10
tol2e 1e-10
doublet
rohf
end

tce
ccsd
end

task tce energy
================================================================================

 Output coordinates in angstroms (scale by  1.889725989 to convert to a.u.)

  No.       Tag          Charge          X              Y              Z
 ---- ---------------- ---------- -------------- -------------- --------------
    1 H                    1.0000     0.75649032     0.00000000    -0.47282801
    2 O                    8.0000     0.00000000     0.00000000     0.11820700
    3 H                    1.0000    -0.75649032     0.00000000    -0.47282801

         Total SCF energy =    -74.654456846246

 Vector    2  Occ=2.000000E+00  E=-1.840247E+00  Symmetry=a1

 Vector    3  Occ=2.000000E+00  E=-1.175971E+00  Symmetry=b1

 Vector    4  Occ=2.000000E+00  E=-1.038297E+00  Symmetry=a1

 Vector    5  Occ=1.000000E+00  E=-6.698481E-01  Symmetry=b2

 Vector    6  Occ=0.000000E+00  E= 9.941979E-02  Symmetry=a1

 Vector    7  Occ=0.000000E+00  E= 2.057242E-01  Symmetry=b1

       Multipole analysis of the density wrt the origin
       ------------------------------------------------

     L   x y z        total         open         nuclear
     -   - - -        -----         ----         -------
     0   0 0 0      1.000000     -1.000000     10.000000

     1   1 0 0      0.000000      0.000000      0.000000
     1   0 1 0      0.000000      0.000000      0.000000
     1   0 0 1     -0.974340     -0.223379      0.000000

     2   2 0 0     -1.795895     -0.297091      4.087280
     2   1 1 0      0.000000      0.000000      0.000000
     2   1 0 1      0.000000      0.000000      0.000000
     2   0 2 0     -3.477920     -0.891272      0.000000
     2   0 1 1      0.000000      0.000000      0.000000

 CCSD total energy / hartree       =       -74.695668290391268
 Total times  cpu:        7.6s     wall:        8.1s
