============================== echo of input deck ==============================
echo

start tce_polar_ccsdt_small

geometry units au
 symmetry d2h
 Ne  0  0  0
end

basis spherical
 * library aug-cc-pVDZ
end

tce
  freeze core
  ccsdt
  io ga
  2eorb
end

set tce:lineresp T
set tce:respaxis F F T
set tce:afreq 0.0 0.1

task tce energy
================================================================================

 Output coordinates in a.u. (scale by  1.000000000 to convert to a.u.)

  No.       Tag          Charge          X              Y              Z
 ---- ---------------- ---------- -------------- -------------- --------------
    1 Ne                  10.0000     0.00000000     0.00000000     0.00000000

         Total SCF energy =   -128.496349730656

 Vector    2  Occ=2.000000D+00  E=-1.940421D+00  Symmetry=ag

 Vector    3  Occ=2.000000D+00  E=-8.530402D-01  Symmetry=b1u

 Vector    4  Occ=2.000000D+00  E=-8.530402D-01  Symmetry=b3u

 Vector    5  Occ=2.000000D+00  E=-8.530402D-01  Symmetry=b2u

 Vector    6  Occ=0.000000D+00  E= 2.873552D-01  Symmetry=ag

 Vector    7  Occ=0.000000D+00  E= 2.930114D-01  Symmetry=b3u

 Vector    8  Occ=0.000000D+00  E= 2.930114D-01  Symmetry=b2u

 Vector    9  Occ=0.000000D+00  E= 2.930114D-01  Symmetry=b1u

 Vector   10  Occ=0.000000D+00  E= 1.757692D+00  Symmetry=ag

 Vector   11  Occ=0.000000D+00  E= 1.757692D+00  Symmetry=ag

 Vector   12  Occ=0.000000D+00  E= 1.757692D+00  Symmetry=b1g

 Vector   13  Occ=0.000000D+00  E= 1.757692D+00  Symmetry=b3g

 Vector   14  Occ=0.000000D+00  E= 1.757692D+00  Symmetry=b2g

 Vector   15  Occ=0.000000D+00  E= 1.961351D+00  Symmetry=b2u

       Multipole analysis of the density wrt the origin
       ------------------------------------------------

     L   x y z        total         open         nuclear
     -   - - -        -----         ----         -------
     0   0 0 0      0.000000      0.000000     10.000000

     1   1 0 0      0.000000      0.000000      0.000000
     1   0 1 0      0.000000      0.000000      0.000000
     1   0 0 1      0.000000      0.000000      0.000000

     2   2 0 0     -3.150211      0.000000      0.000000
     2   1 1 0      0.000000      0.000000      0.000000
     2   1 0 1      0.000000      0.000000      0.000000
     2   0 2 0     -3.150211      0.000000      0.000000
     2   0 1 1      0.000000      0.000000      0.000000

 Total times  cpu:    12169.1s     wall:    12445.9s
