============================== echo of input deck ==============================
start tce_ozone_2eorb

echo

##memory 3500 mb

geometry units bohr
symmetry c2v
O   0.0000000000        0.0000000000        0.0000000000
O   0.0000000000       -2.0473224350       -1.2595211660
O   0.0000000000        2.0473224350       -1.2595211660
end

BASIS spherical
O    S
     10662.285000000      0.00079900
      1599.709700000      0.00615300
       364.725260000      0.03115700
       103.651790000      0.11559600
        33.905805000      0.30155200
O    S
        12.287469000      0.44487000
         4.756805000      0.24317200
O    S
         1.004271000      1.00000000
O    S
         0.300686000      1.00000000
O    S
         0.090030000      1.00000000
O    P
        34.856463000      0.01564800
         7.843131000      0.09819700
         2.306249000      0.30776800
         0.723164000      0.49247000
O    P
         0.214882000      1.00000000
O    P
         0.063850000      1.00000000
O    D
         2.306200000      0.20270000
         0.723200000      0.57910000
O    D
         0.214900000      0.78545000
         0.063900000      0.53387000
END

scf
thresh 1.0e-10
tol2e 1.0e-10
singlet
rhf
end

tce
freeze atomic
2eorb
ccsd(t)
tilesize 20
thresh 1.0d-6
end

task tce energy

================================================================================

 Output coordinates in a.u. (scale by  1.000000000 to convert to a.u.)

  No.       Tag          Charge          X              Y              Z
 ---- ---------------- ---------- -------------- -------------- --------------
    1 O                    8.0000     0.00000000     0.00000000     0.83968078
    2 O                    8.0000     0.00000000    -2.04732244    -0.41984039
    3 O                    8.0000     0.00000000     2.04732244    -0.41984039

         Total SCF energy =   -224.327430429169

 Vector    3  Occ=2.000000D+00  E=-2.071030D+01  Symmetry=a1

 Vector    4  Occ=2.000000D+00  E=-1.757565D+00  Symmetry=a1

 Vector    5  Occ=2.000000D+00  E=-1.437565D+00  Symmetry=b2

 Vector    6  Occ=2.000000D+00  E=-1.096031D+00  Symmetry=a1

 Vector    7  Occ=2.000000D+00  E=-8.364700D-01  Symmetry=a1

 Vector    8  Occ=2.000000D+00  E=-8.044974D-01  Symmetry=b2

 Vector    9  Occ=2.000000D+00  E=-7.856812D-01  Symmetry=b1

 Vector   10  Occ=2.000000D+00  E=-5.659631D-01  Symmetry=b2

 Vector   11  Occ=2.000000D+00  E=-5.550580D-01  Symmetry=a1

 Vector   12  Occ=2.000000D+00  E=-4.901442D-01  Symmetry=a2

 Vector   13  Occ=0.000000D+00  E=-4.949680D-02  Symmetry=b1

 Vector   14  Occ=0.000000D+00  E= 1.105798D-01  Symmetry=b2

 Vector   15  Occ=0.000000D+00  E= 1.132051D-01  Symmetry=a1

 Vector   16  Occ=0.000000D+00  E= 1.335956D-01  Symmetry=a1

 Vector   17  Occ=0.000000D+00  E= 1.605990D-01  Symmetry=b1

 Vector   18  Occ=0.000000D+00  E= 1.960138D-01  Symmetry=a1

 Vector   19  Occ=0.000000D+00  E= 2.041025D-01  Symmetry=b2

 Vector   20  Occ=0.000000D+00  E= 2.118017D-01  Symmetry=a2

 Vector   21  Occ=0.000000D+00  E= 2.210118D-01  Symmetry=b1

 Vector   22  Occ=0.000000D+00  E= 2.575905D-01  Symmetry=a1

 Vector   23  Occ=0.000000D+00  E= 2.637839D-01  Symmetry=b2

 Vector   24  Occ=0.000000D+00  E= 3.058948D-01  Symmetry=a1

 Vector   25  Occ=0.000000D+00  E= 3.630387D-01  Symmetry=b2

 Vector   26  Occ=0.000000D+00  E= 4.155264D-01  Symmetry=a1

 Vector   27  Occ=0.000000D+00  E= 4.453959D-01  Symmetry=b1

 Vector   28  Occ=0.000000D+00  E= 4.725105D-01  Symmetry=b2

 Vector   29  Occ=0.000000D+00  E= 4.861400D-01  Symmetry=a1

 Vector   30  Occ=0.000000D+00  E= 5.389884D-01  Symmetry=b2

       Multipole analysis of the density wrt the origin
       ------------------------------------------------

     L   x y z        total         open         nuclear
     -   - - -        -----         ----         -------
     0   0 0 0      0.000000      0.000000     24.000000

     1   1 0 0      0.000000      0.000000      0.000000
     1   0 1 0      0.000000      0.000000      0.000000
     1   0 0 1      0.306894      0.000000      0.000000

     2   2 0 0    -11.157779      0.000000      0.000000
     2   1 1 0      0.000000      0.000000      0.000000
     2   1 0 1      0.000000      0.000000      0.000000
     2   0 2 0    -12.831221      0.000000     67.064466
     2   0 1 1      0.000000      0.000000      0.000000

 CCSD total energy / hartree       =      -224.959377248453848
 CCSD(T) total energy / hartree       =      -224.995427472668183
 Total times  cpu:       94.5s     wall:       95.1s
