============================== echo of input deck ==============================
start tce_lr_ccsd_c2

echo

memory 3500 mb

geometry units bohr
  symmetry d2h
C   0.0000000000   0.0000000000  -1.174000000
C   0.0000000000   0.0000000000   1.174000000
end

BASIS spherical
 C   S
   6665.0000000      0.69200000000E-03 -0.14600000000E-03
   1000.0000000      0.53290000000E-02 -0.11540000000E-02
   228.00000000      0.27077000000E-01 -0.57250000000E-02
   64.710000000      0.10171800000     -0.23312000000E-01
   21.060000000      0.27474000000     -0.63955000000E-01
   7.4950000000      0.44856400000     -0.14998100000
   2.7970000000      0.28507400000     -0.12726200000
  0.52150000000      0.15204000000E-01  0.54452900000
 C   S
  0.15960000000       1.0000000000
 C   S
  0.46900000000E-01   1.0000000000
 C   P
   9.4390000000      0.38109000000E-01
   2.0020000000      0.20948000000
  0.54560000000      0.50855700000
 C   P
  0.15170000000       1.0000000000
 C   P
  0.40410000000E-01   1.0000000000
 C   D
  0.55000000000       1.0000000000
END

scf
thresh 1.0e-10
tol2e 1.0e-10
singlet
rhf
end

tce
freeze atomic
lr-ccsd
tilesize 10
thresh 1.0d-6
nroots 1
2eorb
end

task tce energy

================================================================================

 Output coordinates in a.u. (scale by  1.000000000 to convert to a.u.)

  No.       Tag          Charge          X              Y              Z
 ---- ---------------- ---------- -------------- -------------- --------------
    1 C                    6.0000     0.00000000     0.00000000    -1.17400000
    2 C                    6.0000     0.00000000     0.00000000     1.17400000

         Total SCF energy =    -75.387964070210

 Vector    2  Occ=2.000000D+00  E=-1.136694D+01  Symmetry=b1u

 Vector    3  Occ=2.000000D+00  E=-1.065636D+00  Symmetry=ag

 Vector    4  Occ=2.000000D+00  E=-5.188596D-01  Symmetry=b1u

 Vector    5  Occ=2.000000D+00  E=-4.579464D-01  Symmetry=b2u

 Vector    6  Occ=2.000000D+00  E=-4.579464D-01  Symmetry=b3u

 Vector    7  Occ=0.000000D+00  E=-1.165513D-01  Symmetry=ag

 Vector    8  Occ=0.000000D+00  E= 7.121059D-02  Symmetry=b1u

 Vector    9  Occ=0.000000D+00  E= 1.037702D-01  Symmetry=b3g

 Vector   10  Occ=0.000000D+00  E= 1.037702D-01  Symmetry=b2g

 Vector   11  Occ=0.000000D+00  E= 1.096848D-01  Symmetry=ag

 Vector   12  Occ=0.000000D+00  E= 1.150397D-01  Symmetry=b2u

 Vector   13  Occ=0.000000D+00  E= 1.150397D-01  Symmetry=b3u

 Vector   14  Occ=0.000000D+00  E= 1.610823D-01  Symmetry=ag

 Vector   15  Occ=0.000000D+00  E= 2.130202D-01  Symmetry=b3g

 Vector   16  Occ=0.000000D+00  E= 2.130202D-01  Symmetry=b2g

 Vector   17  Occ=0.000000D+00  E= 2.670411D-01  Symmetry=b1u

 Vector   18  Occ=0.000000D+00  E= 5.318960D-01  Symmetry=b1u

       Multipole analysis of the density wrt the origin
       ------------------------------------------------

     L   x y z        total         open         nuclear
     -   - - -        -----         ----         -------
     0   0 0 0      0.000000      0.000000     12.000000

     1   1 0 0      0.000000      0.000000      0.000000
     1   0 1 0      0.000000      0.000000      0.000000
     1   0 0 1      0.000000      0.000000      0.000000

     2   2 0 0     -9.437337      0.000000      0.000000
     2   1 1 0      0.000000      0.000000      0.000000
     2   1 0 1      0.000000      0.000000      0.000000
     2   0 2 0     -9.437337      0.000000      0.000000
     2   0 1 1      0.000000      0.000000      0.000000

 CCSD total energy / hartree       =       -75.700612067569566
 Total times  cpu:      525.5s     wall:      526.0s
