============================== echo of input deck ==============================
# A test for TCE's CCSD, CCSDT, CCSDTQ Lambda equation
# and 1-particle density matrices for dipole moments.
# Reference data from an independent (POLYMER) program:
# CCSD   : 0.622313 a.u.
# CCSDT  : 0.623246 a.u.
# CCSDTQ : 0.623152 a.u.

start tce_h2o_dipole

echo

geometry units angstrom
symmetry c1
H 0.0   0.5711156805885   0.7803306218431
O 0.0   0.0   0.0
H 0.0   0.5711156805885  -0.7803306218431
end

basis cartesian
* library sto-3g
end

scf
tol2e 0e-10
thresh 1e-14
singlet
rhf
end

ucc
thresh 1.0d-12
dipole
end

task uccsd energy

task uccsdt energy

#task uccsdtq energy
================================================================================

 Output coordinates in angstroms (scale by  1.889725989 to convert to a.u.)

  No.       Tag          Charge          X              Y              Z
 ---- ---------------- ---------- -------------- -------------- --------------
    1 H                    1.0000     0.00000000     0.45689254     0.78033062
    2 O                    8.0000     0.00000000    -0.11422314     0.00000000
    3 H                    1.0000     0.00000000     0.45689254    -0.78033062

         Total SCF energy =    -74.962663062122

 Vector    2  Occ=2.000000D+00  E=-1.259694D+00

 Vector    3  Occ=2.000000D+00  E=-6.175019D-01

 Vector    4  Occ=2.000000D+00  E=-4.443043D-01

 Vector    5  Occ=2.000000D+00  E=-3.881364D-01

 Vector    6  Occ=0.000000D+00  E= 5.899401D-01

 Vector    7  Occ=0.000000D+00  E= 7.399956D-01

       Multipole analysis of the density wrt the origin
       ------------------------------------------------

     L   x y z        total         open         nuclear
     -   - - -        -----         ----         -------
     0   0 0 0      0.000000      0.000000     10.000000

     1   1 0 0      0.000000      0.000000      0.000000
     1   0 1 0      0.666093      0.000000      0.000000
     1   0 0 1      0.000000      0.000000      0.000000

     2   2 0 0     -4.535291      0.000000      0.000000
     2   1 1 0      0.000000      0.000000      0.000000
     2   1 0 1      0.000000      0.000000      0.000000
     2   0 2 0     -4.042077      0.000000      1.863656
     2   0 1 1      0.000000      0.000000      0.000000

 CCSD total energy / hartree       =       -75.012790390519882
         Total SCF energy =    -74.962663062122
 Total times  cpu:        6.3s     wall:        6.6s
