============================== echo of input deck ==============================
title "tce_eomccsd_eomsol2"
echo
start tce_eomccsd_eomsol2

geometry units angstrom
N            .034130    -.986909     .000000
N          -1.173397     .981920     .000000
C          -1.218805    -.408164     .000000
C           -.007302    1.702153     .000000
C           1.196200    1.107045     .000000
C           1.289085    -.345905     .000000
O           2.310232    -.996874     .000000
O          -2.257041   -1.026495     .000000
H            .049329   -1.997961     .000000
H          -2.070598    1.437050     .000000
H           -.125651    2.776484     .000000
H           2.111671    1.674079     .000000
end

basis
* library 6-31G
end

scf
thresh 1.0e-10
tol2e 1.0e-10
singlet
rhf
end

tce
freeze atomic
creomsd(t)
eomsol 2
diis 5
tilesize 15
thresh 1.0d-5
2eorb
2emet 13
nroots 1
end

task tce energy

================================================================================

 Output coordinates in angstroms (scale by  1.889725989 to convert to a.u.)

  No.       Tag          Charge          X              Y              Z
 ---- ---------------- ---------- -------------- -------------- --------------
    1 N                    7.0000    -0.98690909    -0.03391701     0.00000000
    2 N                    7.0000     0.98280277     1.17216932     0.00000000
    3 C                    6.0000    -0.40724764     1.21859426     0.00000000
    4 C                    6.0000     1.70218250     0.00554773     0.00000000
    5 C                    6.0000     1.10619421    -1.19751858     0.00000000
    6 C                    6.0000    -0.34682336    -1.28934062     0.00000000
    7 O                    8.0000    -0.99853922    -2.31001111     0.00000000
    8 O                    8.0000    -1.02481893     2.25728233     0.00000000
    9 H                    1.0000    -1.99797194    -0.04837635     0.00000000
   10 H                    1.0000     1.43858902     2.06903712     0.00000000
   11 H                    1.0000     2.77659979     0.12311075     0.00000000
   12 H                    1.0000     1.67255832    -2.11340416     0.00000000

         Total SCF energy =   -412.278622283755

 Vector    9  Occ=2.000000E+00  E=-1.463088E+00  Symmetry=a'

 Vector   10  Occ=2.000000E+00  E=-1.428660E+00  Symmetry=a'

 Vector   11  Occ=2.000000E+00  E=-1.326222E+00  Symmetry=a'

 Vector   12  Occ=2.000000E+00  E=-1.253736E+00  Symmetry=a'

 Vector   13  Occ=2.000000E+00  E=-1.099183E+00  Symmetry=a'

 Vector   14  Occ=2.000000E+00  E=-9.407187E-01  Symmetry=a'

 Vector   15  Occ=2.000000E+00  E=-9.087184E-01  Symmetry=a'

 Vector   16  Occ=2.000000E+00  E=-8.122034E-01  Symmetry=a'

 Vector   17  Occ=2.000000E+00  E=-7.759884E-01  Symmetry=a'

 Vector   18  Occ=2.000000E+00  E=-7.191759E-01  Symmetry=a'

 Vector   19  Occ=2.000000E+00  E=-6.769970E-01  Symmetry=a"

 Vector   20  Occ=2.000000E+00  E=-6.759061E-01  Symmetry=a'

 Vector   21  Occ=2.000000E+00  E=-6.519601E-01  Symmetry=a'

 Vector   22  Occ=2.000000E+00  E=-6.151901E-01  Symmetry=a'

 Vector   23  Occ=2.000000E+00  E=-6.041835E-01  Symmetry=a'

 Vector   24  Occ=2.000000E+00  E=-5.774775E-01  Symmetry=a"

 Vector   25  Occ=2.000000E+00  E=-5.292884E-01  Symmetry=a"

 Vector   26  Occ=2.000000E+00  E=-4.812026E-01  Symmetry=a'

 Vector   27  Occ=2.000000E+00  E=-4.468320E-01  Symmetry=a'

 Vector   28  Occ=2.000000E+00  E=-4.314588E-01  Symmetry=a"

 Vector   29  Occ=2.000000E+00  E=-3.668177E-01  Symmetry=a"

 Vector   30  Occ=0.000000E+00  E= 9.324948E-02  Symmetry=a"

 Vector   31  Occ=0.000000E+00  E= 1.645355E-01  Symmetry=a"

 Vector   32  Occ=0.000000E+00  E= 1.887850E-01  Symmetry=a'

 Vector   33  Occ=0.000000E+00  E= 2.450592E-01  Symmetry=a'

 Vector   34  Occ=0.000000E+00  E= 2.530534E-01  Symmetry=a'

 Vector   35  Occ=0.000000E+00  E= 2.960251E-01  Symmetry=a'

 Vector   36  Occ=0.000000E+00  E= 3.040471E-01  Symmetry=a"

 Vector   37  Occ=0.000000E+00  E= 3.630512E-01  Symmetry=a'

 Vector   38  Occ=0.000000E+00  E= 3.893612E-01  Symmetry=a'

 Vector   39  Occ=0.000000E+00  E= 4.180711E-01  Symmetry=a'

 Vector   40  Occ=0.000000E+00  E= 4.379474E-01  Symmetry=a'

 Vector   41  Occ=0.000000E+00  E= 4.960987E-01  Symmetry=a'

 Vector   42  Occ=0.000000E+00  E= 5.359650E-01  Symmetry=a'

       Multipole analysis of the density wrt the origin
       ------------------------------------------------

     L   x y z        total         open         nuclear
     -   - - -        -----         ----         -------
     0   0 0 0      0.000000      0.000000     58.000000

     1   1 0 0      1.975620      0.000000      0.000000
     1   0 1 0      0.498858      0.000000      0.000000
     1   0 0 1      0.000000      0.000000      0.000000

     2   2 0 0    -28.561394      0.000000    260.579374
     2   1 1 0      1.797610      0.000000     -0.217199
     2   1 0 1      0.000000      0.000000      0.000000
     2   0 2 0    -45.629482      0.000000    461.850471
     2   0 1 1      0.000000      0.000000      0.000000

 CCSD total energy / hartree       =      -413.096219311423567
 Total times  cpu:      376.0s     wall:      411.4s
