============================== echo of input deck ==============================
#
# Water UHF-UCCSD/STO-3G
#
# UHF-UCCSD   -0.0391885
#
start tce_uhf_uccsd

echo

charge 1

geometry units angstrom
zmat
H
O H 0.96
H O 0.96 H 104.0
end
end

basis
* library sto-3g
end

scf
thresh 1e-10
tol2e 1e-10
doublet
uhf
end

tce
ccsd
end

task tce energy
================================================================================

 Output coordinates in angstroms (scale by  1.889725989 to convert to a.u.)

  No.       Tag          Charge          X              Y              Z
 ---- ---------------- ---------- -------------- -------------- --------------
    1 H                    1.0000     0.75649032     0.00000000    -0.47282801
    2 O                    8.0000     0.00000000     0.00000000     0.11820700
    3 H                    1.0000    -0.75649032     0.00000000    -0.47282801

         Total SCF energy =    -74.656470840577

 Vector    2  Occ=1.000000D+00  E=-1.927070D+00  Symmetry=a1

 Vector    3  Occ=1.000000D+00  E=-1.198124D+00  Symmetry=b1

 Vector    4  Occ=1.000000D+00  E=-1.114530D+00  Symmetry=b2

 Vector    5  Occ=1.000000D+00  E=-1.068246D+00  Symmetry=a1

 Vector    6  Occ=0.000000D+00  E= 8.407048D-02  Symmetry=a1

 Vector    7  Occ=0.000000D+00  E= 1.958945D-01  Symmetry=b1

 Vector    2  Occ=1.000000D+00  E=-1.756844D+00  Symmetry=a1

 Vector    3  Occ=1.000000D+00  E=-1.155729D+00  Symmetry=b1

 Vector    4  Occ=1.000000D+00  E=-1.008677D+00  Symmetry=a1

 Vector    5  Occ=0.000000D+00  E=-2.263078D-01  Symmetry=b2

 Vector    6  Occ=0.000000D+00  E= 1.163539D-01  Symmetry=a1

 Vector    7  Occ=0.000000D+00  E= 2.161383D-01  Symmetry=b1

       Multipole analysis of the density wrt the origin
       ------------------------------------------------

     L   x y z        total         alpha         beta         nuclear
     -   - - -        -----         -----         ----         -------
     0   0 0 0      1.000000     -5.000000     -4.000000     10.000000

     1   1 0 0      0.000000      0.000000      0.000000      0.000000
     1   0 1 0      0.000000      0.000000      0.000000      0.000000
     1   0 0 1     -0.973562     -0.641303     -0.332259      0.000000

     2   2 0 0     -1.801445     -2.980812     -2.907913      4.087280
     2   1 1 0      0.000000      0.000000      0.000000      0.000000
     2   1 0 1      0.000000      0.000000      0.000000      0.000000
     2   0 2 0     -3.478350     -2.168672     -1.309678      0.000000
     2   0 1 1      0.000000      0.000000      0.000000      0.000000

 CCSD total energy / hartree       =       -74.695659393231836
 Total times  cpu:        0.8s     wall:        1.0s
