============================== echo of input deck ==============================
echo

start tce_polar_ccsd_big

#
# Experimental geometry.  See J. Chem. Phys. 127, 144105 (2007) for details.
#
geometry units angstrom
 symmetry d2h
 C               0.000    1.390    0.000
 H               0.000    2.470    0.000
 C               1.204    0.695    0.000
 H               2.139    1.235    0.000
 C               0.000   -1.390    0.000
 H               0.000   -2.470    0.000
 C              -1.204   -0.695    0.000
 H              -2.139   -1.235    0.000
 C               1.204   -0.695    0.000
 H               2.139   -1.235    0.000
 C              -1.204    0.695    0.000
 H              -2.139    1.235    0.000
end

basis spherical
  * library 6-31G*
end

scf
  singlet
  rhf
  thresh 1.0e-10
end

tce
  scf
  freeze core
  ccsd
  io ga
  2eorb
end

set tce:lineresp T
set tce:respaxis T T T
set tce:afreq 0.0

task tce energy
================================================================================

 Output coordinates in angstroms (scale by  1.889725989 to convert to a.u.)

  No.       Tag          Charge          X              Y              Z
 ---- ---------------- ---------- -------------- -------------- --------------
    1 C                    6.0000     0.00000000     1.39000000     0.00000000
    2 H                    1.0000     0.00000000     2.47000000     0.00000000
    3 C                    6.0000     1.20400000     0.69500000     0.00000000
    4 H                    1.0000     2.13900000     1.23500000     0.00000000
    5 C                    6.0000     0.00000000    -1.39000000     0.00000000
    6 H                    1.0000     0.00000000    -2.47000000     0.00000000
    7 C                    6.0000    -1.20400000    -0.69500000     0.00000000
    8 H                    1.0000    -2.13900000    -1.23500000     0.00000000
    9 C                    6.0000     1.20400000    -0.69500000     0.00000000
   10 H                    1.0000     2.13900000    -1.23500000     0.00000000
   11 C                    6.0000    -1.20400000     0.69500000     0.00000000
   12 H                    1.0000    -2.13900000     1.23500000     0.00000000

         Total SCF energy =   -230.702317384071

 Vector    7  Occ=2.000000D+00  E=-1.145709D+00  Symmetry=ag

 Vector    8  Occ=2.000000D+00  E=-1.009922D+00  Symmetry=b3u

 Vector    9  Occ=2.000000D+00  E=-1.009813D+00  Symmetry=b2u

 Vector   10  Occ=2.000000D+00  E=-8.188473D-01  Symmetry=b1g

 Vector   11  Occ=2.000000D+00  E=-8.188358D-01  Symmetry=ag

 Vector   12  Occ=2.000000D+00  E=-7.050094D-01  Symmetry=ag

 Vector   13  Occ=2.000000D+00  E=-6.393828D-01  Symmetry=b2u

 Vector   14  Occ=2.000000D+00  E=-6.126228D-01  Symmetry=b3u

 Vector   15  Occ=2.000000D+00  E=-5.831297D-01  Symmetry=b3u

 Vector   16  Occ=2.000000D+00  E=-5.829882D-01  Symmetry=b2u

 Vector   17  Occ=2.000000D+00  E=-4.965356D-01  Symmetry=b1u

 Vector   18  Occ=2.000000D+00  E=-4.891389D-01  Symmetry=b1g

 Vector   19  Occ=2.000000D+00  E=-4.891302D-01  Symmetry=ag

 Vector   20  Occ=2.000000D+00  E=-3.301551D-01  Symmetry=b2g

 Vector   21  Occ=2.000000D+00  E=-3.300753D-01  Symmetry=b3g

 Vector   22  Occ=0.000000D+00  E= 1.485537D-01  Symmetry=b1u

 Vector   23  Occ=0.000000D+00  E= 1.485932D-01  Symmetry=au

 Vector   24  Occ=0.000000D+00  E= 2.348074D-01  Symmetry=ag

 Vector   25  Occ=0.000000D+00  E= 2.936757D-01  Symmetry=b2u

 Vector   26  Occ=0.000000D+00  E= 2.936902D-01  Symmetry=b3u

 Vector   27  Occ=0.000000D+00  E= 3.324409D-01  Symmetry=ag

 Vector   28  Occ=0.000000D+00  E= 3.324569D-01  Symmetry=b1g

 Vector   29  Occ=0.000000D+00  E= 3.371775D-01  Symmetry=b2u

 Vector   30  Occ=0.000000D+00  E= 3.690819D-01  Symmetry=b3g

 Vector   31  Occ=0.000000D+00  E= 4.734827D-01  Symmetry=ag

 Vector   32  Occ=0.000000D+00  E= 4.735643D-01  Symmetry=b1g

 Vector   33  Occ=0.000000D+00  E= 4.990307D-01  Symmetry=b3u

 Vector   34  Occ=0.000000D+00  E= 4.990857D-01  Symmetry=b2u

 Vector   35  Occ=0.000000D+00  E= 6.583249D-01  Symmetry=b3u

       Multipole analysis of the density wrt the origin
       ------------------------------------------------

     L   x y z        total         open         nuclear
     -   - - -        -----         ----         -------
     0   0 0 0      0.000000      0.000000     42.000000

     1   1 0 0      0.000000      0.000000      0.000000
     1   0 1 0      0.000000      0.000000      0.000000
     1   0 0 1      0.000000      0.000000      0.000000

     2   2 0 0    -23.327977      0.000000    189.595189
     2   1 1 0      0.000000      0.000000      0.000000
     2   1 0 1      0.000000      0.000000      0.000000
     2   0 2 0    -23.330039      0.000000    189.553879
     2   0 1 1      0.000000      0.000000      0.000000

 CCSD total energy / hartree       =      -231.501589686863298
 Total times  cpu:     1836.1s     wall:     1620.8s
