============================== echo of input deck ==============================
#
# Test for CC, CI, MBPT codes in the TCE module
# Reference data obtained by an independent determinantal CC, CI, MBPT code are
#
# LCCD   -0.0505753360
# LCCSD  -0.0508915694
# CCD    -0.0498521356
# CCSD   -0.0501273286
# CCSDT  -0.0502322580
# CCSDTQ -0.0502556616
# QCISD  -0.0501452655
# CISD   -0.0495138383
# CISDT  -0.0496160908
# CISDTQ -0.0502556615
# MBPT2  -0.0358672469
# MBPT3  -0.0098015863
# MBPT4  -0.0030104405
#
# in units of hartree.
#
start tce_h2o

echo

geometry units bohr
H    0.000000000000000   1.079252144093028   1.474611055780858
O    0.000000000000000   0.000000000000000   0.000000000000000
H    0.000000000000000   1.079252144093028  -1.474611055780858
end

basis
H library sto-3g
O library sto-3g
end

scf
thresh 1.0e-10
tol2e 1.0e-10
singlet
rhf
end

tce
lccd
end

task tce energy

tce
lccsd
end

task tce energy

tce
ccd
end

task tce energy

tce
ccsd
end

task tce energy

tce
ccsdt
end

task tce energy

tce
ccsdtq
end

#task tce energy

tce
qcisd
end

task tce energy

tce
cisd
end

task tce energy

tce
cisdt
end

task tce energy

tce
cisdtq
end

#task tce energy

tce
mbpt2
end

task tce energy

tce
mbpt3
end

task tce energy

tce
mbpt4
end

#task tce energy
================================================================================

 Output coordinates in a.u. (scale by  1.000000000 to convert to a.u.)

  No.       Tag          Charge          X              Y              Z
 ---- ---------------- ---------- -------------- -------------- --------------
    1 H                    1.0000     1.47461106     0.00000000     0.86340172
    2 O                    8.0000     0.00000000     0.00000000    -0.21585043
    3 H                    1.0000    -1.47461106     0.00000000     0.86340172

         Total SCF energy =    -74.962663062122

 Vector    2  Occ=2.000000D+00  E=-1.259694D+00  Symmetry=a1

 Vector    3  Occ=2.000000D+00  E=-6.175019D-01  Symmetry=b1

 Vector    4  Occ=2.000000D+00  E=-4.443043D-01  Symmetry=a1

 Vector    5  Occ=2.000000D+00  E=-3.881364D-01  Symmetry=b2

 Vector    6  Occ=0.000000D+00  E= 5.899401D-01  Symmetry=a1

 Vector    7  Occ=0.000000D+00  E= 7.399956D-01  Symmetry=b1

       Multipole analysis of the density wrt the origin
       ------------------------------------------------

     L   x y z        total         open         nuclear
     -   - - -        -----         ----         -------
     0   0 0 0      0.000000      0.000000     10.000000

     1   1 0 0      0.000000      0.000000      0.000000
     1   0 1 0      0.000000      0.000000      0.000000
     1   0 0 1      0.666093      0.000000      0.000000

     2   2 0 0     -3.162719      0.000000      4.348956
     2   1 1 0      0.000000      0.000000      0.000000
     2   1 0 1      0.000000      0.000000      0.000000
     2   0 2 0     -4.535291      0.000000      0.000000
     2   0 1 1      0.000000      0.000000      0.000000

         Total SCF energy =    -74.962663062122
 LCCSD total energy / hartree       =       -75.013554624840310
         Total SCF energy =    -74.962663062122
         Total SCF energy =    -74.962663062122
 CCSD total energy / hartree       =       -75.012790382445161
         Total SCF energy =    -74.962663062122
         Total SCF energy =    -74.962663062122
         Total SCF energy =    -74.962663062122
         Total SCF energy =    -74.962663062122
         Total SCF energy =    -74.962663062122
         Total SCF energy =    -74.962663062122
 Total times  cpu:        4.3s     wall:        5.6s
