============================== echo of input deck ==============================
#
# Test for CC Lambda & EOM-CC codes in the TCE module
# Reference data obtained by an independent determinantal CC code are
#
# CCSD       dipole -0.622369 au
# EOM-CCSD   energy 11.99085 eV -74.5720575104 au
#            dipole -0.002805 au trnsmmnt 0.106385 au
#
# CCSDT      dipole -0.623302 au
# EOM-CCSDT  energy 12.01829 eV -74.5711542500 au
#            dipole 0.023918 au  trnsmmnt 0.106140 au
#
# CCSDTQ     dipole -0.623208 au
# EOM-CCSDTQ energy 12.01783 eV -74.5711948088 au
#            dipole 0.024926 au  trnsmmnt 0.106143 au
#
start tce_h2o_eomcc

echo

geometry units bohr
symmetry c1
H    1.474611052297904   0.000000000000000   0.863401706825835
O    0.000000000000000   0.000000000000000  -0.215850436155089
H   -1.474611052297904   0.000000000000000   0.863401706825835
end

basis
* library sto-3g
end

scf
thresh 1.0e-14
tol2e 0.0e-10
singlet
rhf
end

tce
ccsd
dipole
freeze core atomic
thresh 1.0d-12
nroots 1
end

task tce energy

tce
ccsdt
dipole
freeze core atomic
thresh 1.0d-12
nroots 1
end

task tce energy

tce
ccsdtq
dipole
freeze core atomic
thresh 1.0d-12
nroots 1
end

#task tce energy
================================================================================

 Output coordinates in a.u. (scale by  1.000000000 to convert to a.u.)

  No.       Tag          Charge          X              Y              Z
 ---- ---------------- ---------- -------------- -------------- --------------
    1 H                    1.0000     1.47461105     0.00000000     0.86340171
    2 O                    8.0000     0.00000000     0.00000000    -0.21585043
    3 H                    1.0000    -1.47461105     0.00000000     0.86340171

         Total SCF energy =    -74.962663062005

 Vector    2  Occ=2.000000D+00  E=-1.259694D+00

 Vector    3  Occ=2.000000D+00  E=-6.175019D-01

 Vector    4  Occ=2.000000D+00  E=-4.443043D-01

 Vector    5  Occ=2.000000D+00  E=-3.881364D-01

 Vector    6  Occ=0.000000D+00  E= 5.899401D-01

 Vector    7  Occ=0.000000D+00  E= 7.399956D-01

       Multipole analysis of the density wrt the origin
       ------------------------------------------------

     L   x y z        total         open         nuclear
     -   - - -        -----         ----         -------
     0   0 0 0      0.000000      0.000000     10.000000

     1   1 0 0      0.000000      0.000000      0.000000
     1   0 1 0      0.000000      0.000000      0.000000
     1   0 0 1      0.666093      0.000000      0.000000

     2   2 0 0     -3.162719      0.000000      4.348956
     2   1 1 0      0.000000      0.000000      0.000000
     2   1 0 1      0.000000      0.000000      0.000000
     2   0 2 0     -4.535291      0.000000      0.000000
     2   0 1 1      0.000000      0.000000      0.000000

 CCSD total energy / hartree       =       -75.012713012696778
         Total SCF energy =    -74.962663062005
 Total times  cpu:        8.5s     wall:       12.0s
