============================== echo of input deck ==============================
#
# Test for Casida-Salahub asymptotic correction
# Casida, Salahub JCP 113, 8918 (2000).
# CO AC-LDA -HOMO = 13.78 eV (different geometry, different basis set)
# CO Delta SCF IP = 14.10 eV versus -HOMO = 9.10 eV (shift = 5.00 eV)
# Tozer, Handy, JCP 109, 10180 (1998).
# Experimental vertical excitation energies of CO
# Singlet: 8.51, 9.88, 10.23, 10.78, 11.40, 11.53, 12.4 eV
# Triplet: 6.32, 8.51, 9.36, 9.88, 10.4, 11.3, 11.55 eV
#
# turned off autsym since c4v is non-abelian
# imposed c2v abelian group
#
start tddft_ac_co

echo

charge 0

geometry
O 0.0 0.0  0.0000
C 0.0 0.0  1.1283
symmetry c2v
end

basis spherical
C library aug-cc-pVDZ
O library aug-cc-pVDZ
end

dft
xc slater vwn_5
cs00 0.1837
end

tddft
nroots 12
end

task tddft energy
================================================================================

 Output coordinates in angstroms (scale by  1.889725989 to convert to a.u.)

  No.       Tag          Charge          X              Y              Z
 ---- ---------------- ---------- -------------- -------------- --------------
    1 O                    8.0000     0.00000000     0.00000000    -0.48355714
    2 C                    6.0000     0.00000000     0.00000000     0.64474286

         Total DFT energy =     -112.431426852458

                       DFT Final Molecular Orbital Analysis
                       ------------------------------------

 Vector    1  Occ=2.000000D+00  E=-1.892045D+01  Symmetry=a1

 Vector    2  Occ=2.000000D+00  E=-1.011789D+01  Symmetry=a1

 Vector    3  Occ=2.000000D+00  E=-1.247122D+00  Symmetry=a1

 Vector    4  Occ=2.000000D+00  E=-6.951882D-01  Symmetry=a1

 Vector    5  Occ=2.000000D+00  E=-6.213806D-01  Symmetry=b1

 Vector    6  Occ=2.000000D+00  E=-6.213806D-01  Symmetry=b2

 Vector    7  Occ=2.000000D+00  E=-5.067601D-01  Symmetry=a1

 Vector    8  Occ=0.000000D+00  E=-2.550515D-01  Symmetry=b1

 Vector    9  Occ=0.000000D+00  E=-2.550515D-01  Symmetry=b2

 Vector   10  Occ=0.000000D+00  E=-1.224549D-01  Symmetry=a1

 Vector   11  Occ=0.000000D+00  E=-8.128780D-02  Symmetry=a1

 Vector   12  Occ=0.000000D+00  E=-7.613262D-02  Symmetry=b1

 Vector   13  Occ=0.000000D+00  E=-7.613262D-02  Symmetry=b2

 Vector   14  Occ=0.000000D+00  E=-1.012223D-02  Symmetry=a1

 Vector   15  Occ=0.000000D+00  E= 2.098090D-02  Symmetry=b1

 Vector   16  Occ=0.000000D+00  E= 2.098090D-02  Symmetry=b2

 Vector   17  Occ=0.000000D+00  E= 8.721827D-02  Symmetry=a1

 Vector   18  Occ=0.000000D+00  E= 1.109573D-01  Symmetry=a1

 Vector   19  Occ=0.000000D+00  E= 1.109583D-01  Symmetry=a2

 Vector   20  Occ=0.000000D+00  E= 2.003092D-01  Symmetry=a1

 Vector   21  Occ=0.000000D+00  E= 2.667488D-01  Symmetry=b2

 Vector   22  Occ=0.000000D+00  E= 2.667488D-01  Symmetry=b1

 Vector   23  Occ=0.000000D+00  E= 3.590783D-01  Symmetry=b1

 Vector   24  Occ=0.000000D+00  E= 3.590783D-01  Symmetry=b2

 Vector   25  Occ=0.000000D+00  E= 3.672943D-01  Symmetry=a1

 Vector   26  Occ=0.000000D+00  E= 4.838530D-01  Symmetry=a1

 Vector   27  Occ=0.000000D+00  E= 6.313495D-01  Symmetry=a1

     Multipole analysis of the density
     ---------------------------------

     L   x y z        total         alpha         beta         nuclear
     -   - - -        -----         -----         ----         -------
     0   0 0 0      0.000000     -7.000000     -7.000000     14.000000

     1   1 0 0      0.000000      0.000000      0.000000      0.000000
     1   0 1 0      0.000000      0.000000      0.000000      0.000000
     1   0 0 1     -0.043024     -0.021512     -0.021512      0.000000

     2   2 0 0     -7.767377     -3.883688     -3.883688      0.000000
     2   1 1 0      0.000000      0.000000      0.000000      0.000000
     2   1 0 1      0.000000      0.000000      0.000000      0.000000
     2   0 2 0     -7.767377     -3.883688     -3.883688      0.000000
     2   0 1 1      0.000000      0.000000      0.000000      0.000000

  Root  1 singlet b2    0.301391624 a.u. (  8.2012869 eV)
     Dipole Oscillator Strength                          0.07817
  Root  2 singlet b1    0.301391624 a.u. (  8.2012869 eV)
     Dipole Oscillator Strength                          0.07817
  Root  3 singlet a2    0.366329038 a.u. (  9.9683246 eV)
     Dipole Oscillator Strength                          0.00000
  Root  4 singlet a1    0.383697836 a.u. ( 10.4409538 eV)
     Dipole Oscillator Strength                          0.00000
  Root  5 singlet a2    0.383697841 a.u. ( 10.4409539 eV)
     Dipole Oscillator Strength                          0.00000
  Root  6 singlet a1    0.393832725 a.u. ( 10.7167383 eV)
     Dipole Oscillator Strength                          0.01857
  Root  7 singlet b1    0.429000671 a.u. ( 11.6737072 eV)
     Dipole Oscillator Strength                          0.06927
  Root  8 singlet b2    0.429000671 a.u. ( 11.6737072 eV)
     Dipole Oscillator Strength                          0.06927
  Root  9 singlet a1    0.430293221 a.u. ( 11.7088793 eV)
     Dipole Oscillator Strength                          0.22028
  Root 10 singlet b2    0.484381507 a.u. ( 13.1806970 eV)
     Dipole Oscillator Strength                          0.09635
  Root 11 singlet b1    0.484381508 a.u. ( 13.1806971 eV)
     Dipole Oscillator Strength                          0.09635
  Root 12 singlet a1    0.491743238 a.u. ( 13.3810200 eV)
     Dipole Oscillator Strength                          0.06010
  Root  1 triplet b1    0.218250373 a.u. (  5.9388973 eV)
  Root  2 triplet b2    0.218250373 a.u. (  5.9388973 eV)
  Root  3 triplet a1    0.312885719 a.u. (  8.5140572 eV)
  Root  4 triplet a1    0.341350706 a.u. (  9.2886293 eV)
  Root  5 triplet a2    0.341350714 a.u. (  9.2886295 eV)
  Root  6 triplet a2    0.366329038 a.u. (  9.9683246 eV)
  Root  7 triplet a1    0.376314869 a.u. ( 10.2400530 eV)
  Root  8 triplet a1    0.416699783 a.u. ( 11.3389829 eV)
  Root  9 triplet b2    0.418575804 a.u. ( 11.3900320 eV)
  Root 10 triplet b1    0.418575804 a.u. ( 11.3900320 eV)
  Root 11 triplet b1    0.426893306 a.u. ( 11.6163628 eV)
  Root 12 triplet b2    0.426893306 a.u. ( 11.6163628 eV)
 Total times  cpu:       25.5s     wall:       26.1s
