============================== echo of input deck ==============================
# This tests CIS, TDHF, TDDFT functionality at once
# by using a hybrid LDA, GGA, HF functional for
# spin unrestricted reference with symmetry on.

start tddft_n2+

echo

title "TDDFT N2+ 1.0977A B3LYP/6-31G** QA TEST"

charge 1

geometry
symmetry d2h
N 0.0 0.0 -0.54885
N 0.0 0.0  0.54885
end

basis
N library 6-31G**
end

dft
xc b3lyp
mult 2
end

tddft
nroots 10
end

task tddft energy
================================================================================

 Output coordinates in angstroms (scale by  1.889725989 to convert to a.u.)

  No.       Tag          Charge          X              Y              Z
 ---- ---------------- ---------- -------------- -------------- --------------
    1 N                    7.0000     0.00000000     0.00000000    -0.54885000
    2 N                    7.0000     0.00000000     0.00000000     0.54885000

         Total DFT energy =     -108.945393447777

                    DFT Final Alpha Molecular Orbital Analysis
                    ------------------------------------------

 Vector    1  Occ=1.000000D+00  E=-1.494917D+01  Symmetry=ag

 Vector    2  Occ=1.000000D+00  E=-1.494736D+01  Symmetry=b1u

 Vector    3  Occ=1.000000D+00  E=-1.583893D+00  Symmetry=ag

 Vector    4  Occ=1.000000D+00  E=-1.018210D+00  Symmetry=b1u

 Vector    5  Occ=1.000000D+00  E=-9.090879D-01  Symmetry=ag

 Vector    6  Occ=1.000000D+00  E=-8.933356D-01  Symmetry=b3u

 Vector    7  Occ=1.000000D+00  E=-8.933356D-01  Symmetry=b2u

 Vector    8  Occ=0.000000D+00  E=-4.490959D-01  Symmetry=b2g

 Vector    9  Occ=0.000000D+00  E=-4.490959D-01  Symmetry=b3g

 Vector   10  Occ=0.000000D+00  E= 7.250482D-02  Symmetry=b1u

 Vector   11  Occ=0.000000D+00  E= 2.342948D-01  Symmetry=ag

 Vector   12  Occ=0.000000D+00  E= 2.471108D-01  Symmetry=b3u

 Vector   13  Occ=0.000000D+00  E= 2.471108D-01  Symmetry=b2u

 Vector   14  Occ=0.000000D+00  E= 2.703074D-01  Symmetry=ag

 Vector   15  Occ=0.000000D+00  E= 3.480406D-01  Symmetry=b1u

 Vector   16  Occ=0.000000D+00  E= 3.952258D-01  Symmetry=b3g

 Vector   17  Occ=0.000000D+00  E= 3.952258D-01  Symmetry=b2g

 Vector   18  Occ=0.000000D+00  E= 8.915454D-01  Symmetry=b1u

 Vector    1  Occ=1.000000D+00  E=-1.493673D+01  Symmetry=ag

 Vector    2  Occ=1.000000D+00  E=-1.493519D+01  Symmetry=b1u

 Vector    3  Occ=1.000000D+00  E=-1.555875D+00  Symmetry=ag

 Vector    4  Occ=1.000000D+00  E=-9.264228D-01  Symmetry=b1u

 Vector    5  Occ=1.000000D+00  E=-8.796020D-01  Symmetry=b2u

 Vector    6  Occ=1.000000D+00  E=-8.796020D-01  Symmetry=b3u

 Vector    7  Occ=0.000000D+00  E=-7.296925D-01  Symmetry=ag

 Vector    8  Occ=0.000000D+00  E=-4.251349D-01  Symmetry=b2g

 Vector    9  Occ=0.000000D+00  E=-4.251349D-01  Symmetry=b3g

 Vector   10  Occ=0.000000D+00  E= 8.989112D-02  Symmetry=b1u

 Vector   11  Occ=0.000000D+00  E= 2.516843D-01  Symmetry=ag

 Vector   12  Occ=0.000000D+00  E= 2.535903D-01  Symmetry=b2u

 Vector   13  Occ=0.000000D+00  E= 2.535903D-01  Symmetry=b3u

 Vector   14  Occ=0.000000D+00  E= 3.081730D-01  Symmetry=ag

 Vector   15  Occ=0.000000D+00  E= 4.043490D-01  Symmetry=b3g

 Vector   16  Occ=0.000000D+00  E= 4.043490D-01  Symmetry=b2g

 Vector   17  Occ=0.000000D+00  E= 4.170120D-01  Symmetry=b1u

 Vector   18  Occ=0.000000D+00  E= 8.982059D-01  Symmetry=b1u

     Multipole analysis of the density
     ---------------------------------

     L   x y z        total         alpha         beta         nuclear
     -   - - -        -----         -----         ----         -------
     0   0 0 0      1.000000     -7.000000     -6.000000     14.000000

     1   1 0 0      0.000000      0.000000      0.000000      0.000000
     1   0 1 0      0.000000      0.000000      0.000000      0.000000
     1   0 0 1      0.000000      0.000000      0.000000      0.000000

     2   2 0 0     -6.212747     -3.309271     -2.903476      0.000000
     2   1 1 0      0.000000      0.000000      0.000000      0.000000
     2   1 0 1      0.000000      0.000000      0.000000      0.000000
     2   0 2 0     -6.212747     -3.309271     -2.903476      0.000000
     2   0 1 1      0.000000      0.000000      0.000000      0.000000

  Root  1         b2u   0.039837365 a.u. (  1.0840303 eV)
     Dipole Oscillator Strength                          0.00254
  Root  2         b3u   0.039837365 a.u. (  1.0840303 eV)
     Dipole Oscillator Strength                          0.00254
  Root  3         b1u   0.116061547 a.u. (  3.1581967 eV)
     Dipole Oscillator Strength                          0.03768
  Root  4         b1u   0.254048941 a.u. (  6.9130264 eV)
     Dipole Oscillator Strength                          0.00107
  Root  5         b1u   0.288942601 a.u. (  7.8625316 eV)
     Dipole Oscillator Strength                          0.00000
  Root  6         au    0.288942607 a.u. (  7.8625317 eV)
     Dipole Oscillator Strength                          0.00000
  Root  7         au    0.340791278 a.u. (  9.2734065 eV)
     Dipole Oscillator Strength                          0.00000
  Root  8         au    0.351283436 a.u. (  9.5589127 eV)
     Dipole Oscillator Strength                          0.00000
  Root  9         b1u   0.363211700 a.u. (  9.8834974 eV)
     Dipole Oscillator Strength                          0.00000
  Root 10         au    0.363211700 a.u. (  9.8834975 eV)
     Dipole Oscillator Strength                          0.00000
 Total times  cpu:        9.2s     wall:        9.5s
