============================== echo of input deck ==============================
# This tests CIS, TDHF, TDDFT functionality at once
# by using a hybrid LDA, GGA, HF functional for
# spin restricted reference with symmetry on.

start tddft_h2o

echo

title "TDDFT H2O B3LYP/6-31G** QA TEST"

geometry
O     0.00000000     0.00000000     0.12982363
H     0.75933475     0.00000000    -0.46621158
H    -0.75933475     0.00000000    -0.46621158
end

basis
O library 6-31G**
H library 6-31G**
end

dft
xc b3lyp
end

tddft
 nroots 10
 notriplet
 algorithm 1
end

task dft energy
task tddft energy
#task dft freq
================================================================================

 Output coordinates in angstroms (scale by  1.889725989 to convert to a.u.)

  No.       Tag          Charge          X              Y              Z
 ---- ---------------- ---------- -------------- -------------- --------------
    1 O                    8.0000     0.00000000     0.00000000     0.11920704
    2 H                    1.0000     0.75933475     0.00000000    -0.47682817
    3 H                    1.0000    -0.75933475     0.00000000    -0.47682817

         Total DFT energy =      -76.419737926800

 Vector    1  Occ=2.000000D+00  E=-1.913801D+01  Symmetry=a1

 Vector    2  Occ=2.000000D+00  E=-9.973144D-01  Symmetry=a1

 Vector    3  Occ=2.000000D+00  E=-5.149842D-01  Symmetry=b1

 Vector    4  Occ=2.000000D+00  E=-3.710239D-01  Symmetry=a1

 Vector    5  Occ=2.000000D+00  E=-2.919627D-01  Symmetry=b2

 Vector    6  Occ=0.000000D+00  E= 6.534607D-02  Symmetry=a1

 Vector    7  Occ=0.000000D+00  E= 1.512260D-01  Symmetry=b1

 Vector    8  Occ=0.000000D+00  E= 7.568468D-01  Symmetry=b1

 Vector    9  Occ=0.000000D+00  E= 8.055100D-01  Symmetry=a1

 Vector   10  Occ=0.000000D+00  E= 8.913501D-01  Symmetry=b2

 Vector   11  Occ=0.000000D+00  E= 8.935284D-01  Symmetry=a1

 Vector   12  Occ=0.000000D+00  E= 1.015566D+00  Symmetry=b1

 Vector   13  Occ=0.000000D+00  E= 1.175374D+00  Symmetry=a1

 Vector   14  Occ=0.000000D+00  E= 1.529509D+00  Symmetry=a2

 Vector   15  Occ=0.000000D+00  E= 1.537657D+00  Symmetry=a1

         Total DFT energy =      -76.419737926903

                       DFT Final Molecular Orbital Analysis
                       ------------------------------------

 Vector    1  Occ=2.000000D+00  E=-1.913801D+01  Symmetry=a1

 Vector    2  Occ=2.000000D+00  E=-9.973141D-01  Symmetry=a1

 Vector    3  Occ=2.000000D+00  E=-5.149839D-01  Symmetry=b1

 Vector    4  Occ=2.000000D+00  E=-3.710237D-01  Symmetry=a1

 Vector    5  Occ=2.000000D+00  E=-2.919624D-01  Symmetry=b2

 Vector    6  Occ=0.000000D+00  E= 6.534604D-02  Symmetry=a1

 Vector    7  Occ=0.000000D+00  E= 1.512261D-01  Symmetry=b1

 Vector    8  Occ=0.000000D+00  E= 7.568468D-01  Symmetry=b1

 Vector    9  Occ=0.000000D+00  E= 8.055101D-01  Symmetry=a1

 Vector   10  Occ=0.000000D+00  E= 8.913503D-01  Symmetry=b2

 Vector   11  Occ=0.000000D+00  E= 8.935286D-01  Symmetry=a1

 Vector   12  Occ=0.000000D+00  E= 1.015566D+00  Symmetry=b1

 Vector   13  Occ=0.000000D+00  E= 1.175374D+00  Symmetry=a1

 Vector   14  Occ=0.000000D+00  E= 1.529509D+00  Symmetry=a2

 Vector   15  Occ=0.000000D+00  E= 1.537657D+00  Symmetry=a1

     Multipole analysis of the density
     ---------------------------------

     L   x y z        total         alpha         beta         nuclear
     -   - - -        -----         -----         ----         -------
     0   0 0 0      0.000000     -5.000000     -5.000000     10.000000

     1   1 0 0      0.000000      0.000000      0.000000      0.000000
     1   0 1 0      0.000000      0.000000      0.000000      0.000000
     1   0 0 1     -0.803750     -0.401875     -0.401875      0.000000

     2   2 0 0     -3.194728     -3.656402     -3.656402      4.118075
     2   1 1 0      0.000000      0.000000      0.000000      0.000000
     2   1 0 1      0.000000      0.000000      0.000000      0.000000
     2   0 2 0     -5.306781     -2.653391     -2.653391      0.000000
     2   0 1 1      0.000000      0.000000      0.000000      0.000000

  Root  1 singlet b2    0.294221028 a.u. (  8.0061649 eV)
     Dipole Oscillator Strength                          0.01418
  Root  2 singlet a2    0.369097202 a.u. ( 10.0436502 eV)
     Dipole Oscillator Strength                          0.00000
  Root  3 singlet a1    0.387064448 a.u. ( 10.5325640 eV)
     Dipole Oscillator Strength                          0.09433
  Root  4 singlet b1    0.466992150 a.u. ( 12.7075084 eV)
     Dipole Oscillator Strength                          0.06973
  Root  5 singlet b1    0.533227416 a.u. ( 14.5098624 eV)
     Dipole Oscillator Strength                          0.39338
  Root  6 singlet a1    0.652737995 a.u. ( 17.7619121 eV)
     Dipole Oscillator Strength                          0.20401
  Root  7 singlet a2    0.962204498 a.u. ( 26.1829277 eV)
     Dipole Oscillator Strength                          0.00000
  Root  8 singlet b2    1.009123512 a.u. ( 27.4596596 eV)
     Dipole Oscillator Strength                          0.10406
  Root  9 singlet a1    1.018624648 a.u. ( 27.7181988 eV)
     Dipole Oscillator Strength                          0.03298
  Root 10 singlet b1    1.074907662 a.u. ( 29.2497382 eV)
     Dipole Oscillator Strength                          0.14279
 Total times  cpu:        7.6s     wall:        7.9s
