 Output coordinates in angstroms (scale by  1.889725989 to convert to a.u.)

  No.       Tag          Charge          X              Y              Z
 ---- ---------------- ---------- -------------- -------------- --------------
    1 H                    1.0000     0.45702107    -1.63174773     0.78857687
    2 N                    7.0000     0.23616506    -1.22924561    -0.09824637
    3 C                    6.0000    -0.42748187    -0.02114609     0.03395304
    4 H                    1.0000    -1.51697132     0.00488043    -0.12981864
    5 F                    9.0000     0.21907623     1.15094035    -0.01941687

         Total DFT energy =     -193.818993068742
         Total DFT energy =     -193.818993066015

 Vector   10  Occ=1.000000D+00  E=-3.540917D-01

 Vector   11  Occ=1.000000D+00  E=-2.798985D-01

 Vector   12  Occ=1.000000D+00  E=-1.774431D-01

 Vector   13  Occ=0.000000D+00  E=-1.113639D-01

 Vector   14  Occ=0.000000D+00  E= 7.876115D-02

 Vector   15  Occ=0.000000D+00  E= 1.209234D-01

 Vector   16  Occ=0.000000D+00  E= 1.602724D-01

 Vector   17  Occ=0.000000D+00  E= 2.722135D-01

 Vector   18  Occ=0.000000D+00  E= 4.849895D-01

 Vector   19  Occ=0.000000D+00  E= 4.989562D-01

 Vector   20  Occ=0.000000D+00  E= 5.547618D-01

 Vector   21  Occ=0.000000D+00  E= 6.471665D-01

 Vector   22  Occ=0.000000D+00  E= 6.926656D-01

 Vector    2  Occ=1.000000D+00  E=-1.409251D+01

 Vector    3  Occ=1.000000D+00  E=-1.016259D+01

 Vector    4  Occ=1.000000D+00  E=-1.177109D+00

 Vector    5  Occ=1.000000D+00  E=-7.945229D-01

 Vector    6  Occ=1.000000D+00  E=-6.037254D-01

 Vector    7  Occ=1.000000D+00  E=-4.962937D-01

 Vector    8  Occ=1.000000D+00  E=-4.618154D-01

 Vector    9  Occ=1.000000D+00  E=-4.278098D-01

 Vector   10  Occ=1.000000D+00  E=-3.540917D-01

 Vector   11  Occ=1.000000D+00  E=-2.798985D-01

 Vector   12  Occ=1.000000D+00  E=-1.774431D-01

 Vector   13  Occ=0.000000D+00  E=-1.113639D-01

 Vector   14  Occ=0.000000D+00  E= 7.876115D-02

 Vector   15  Occ=0.000000D+00  E= 1.209234D-01

 Vector   16  Occ=0.000000D+00  E= 1.602724D-01

 Vector   17  Occ=0.000000D+00  E= 2.722135D-01

 Vector   18  Occ=0.000000D+00  E= 4.849895D-01

 Vector   19  Occ=0.000000D+00  E= 4.989562D-01

 Vector   20  Occ=0.000000D+00  E= 5.547618D-01

 Vector   21  Occ=0.000000D+00  E= 6.471665D-01

 Vector   22  Occ=0.000000D+00  E= 6.926656D-01

         Total DFT energy =     -193.766290649594

                    DFT Final Alpha Molecular Orbital Analysis
                    ------------------------------------------

 Vector    1  Occ=1.000000D+00  E=-2.444114D+01

 Vector    2  Occ=1.000000D+00  E=-1.417401D+01

 Vector    3  Occ=1.000000D+00  E=-1.008577D+01

 Vector    4  Occ=1.000000D+00  E=-1.145663D+00

 Vector    5  Occ=1.000000D+00  E=-8.574003D-01

 Vector    6  Occ=1.000000D+00  E=-5.978409D-01

 Vector    7  Occ=1.000000D+00  E=-4.794533D-01

 Vector    8  Occ=1.000000D+00  E=-4.712508D-01

 Vector    9  Occ=1.000000D+00  E=-4.093078D-01

 Vector   10  Occ=1.000000D+00  E=-3.430476D-01

 Vector   11  Occ=1.000000D+00  E=-3.083073D-01

 Vector   12  Occ=1.000000D+00  E=-2.867244D-01

 Vector   13  Occ=1.000000D+00  E=-1.254265D-01

 Vector   14  Occ=0.000000D+00  E= 6.502291D-02

 Vector   15  Occ=0.000000D+00  E= 1.109989D-01

 Vector   16  Occ=0.000000D+00  E= 1.637054D-01

 Vector   17  Occ=0.000000D+00  E= 2.554746D-01

 Vector   18  Occ=0.000000D+00  E= 5.012253D-01

 Vector   19  Occ=0.000000D+00  E= 5.035577D-01

 Vector   20  Occ=0.000000D+00  E= 5.472633D-01

 Vector   21  Occ=0.000000D+00  E= 6.141753D-01

 Vector   22  Occ=0.000000D+00  E= 6.479671D-01

 Vector   23  Occ=0.000000D+00  E= 7.244528D-01

 Vector    1  Occ=1.000000D+00  E=-2.443602D+01

 Vector    2  Occ=1.000000D+00  E=-1.415306D+01

 Vector    3  Occ=1.000000D+00  E=-1.007177D+01

 Vector    4  Occ=1.000000D+00  E=-1.135323D+00

 Vector    5  Occ=1.000000D+00  E=-8.102443D-01

 Vector    6  Occ=1.000000D+00  E=-5.694747D-01

 Vector    7  Occ=1.000000D+00  E=-4.633558D-01

 Vector    8  Occ=1.000000D+00  E=-4.543489D-01

 Vector    9  Occ=1.000000D+00  E=-3.784796D-01

 Vector   10  Occ=1.000000D+00  E=-3.304651D-01

 Vector   11  Occ=1.000000D+00  E=-2.756784D-01

 Vector   12  Occ=0.000000D+00  E=-1.655524D-01

 Vector   13  Occ=0.000000D+00  E=-3.542944D-02

 Vector   14  Occ=0.000000D+00  E= 9.427626D-02

 Vector   15  Occ=0.000000D+00  E= 1.350145D-01

 Vector   16  Occ=0.000000D+00  E= 1.952430D-01

 Vector   17  Occ=0.000000D+00  E= 2.894097D-01

 Vector   18  Occ=0.000000D+00  E= 5.259535D-01

 Vector   19  Occ=0.000000D+00  E= 5.584668D-01

 Vector   20  Occ=0.000000D+00  E= 5.820386D-01

 Vector   21  Occ=0.000000D+00  E= 6.699605D-01

 Vector   22  Occ=0.000000D+00  E= 6.788974D-01

 Vector   23  Occ=0.000000D+00  E= 7.781517D-01

     Multipole analysis of the density
     ---------------------------------

     L   x y z        total         alpha         beta         nuclear
     -   - - -        -----         -----         ----         -------
     0   0 0 0      0.000000    -13.000000    -11.000000     24.000000

     1   1 0 0     -0.273612     -0.031542     -0.242070      0.000000
     1   0 1 0     -0.285461      0.993062     -1.278522      0.000000
     1   0 0 1      0.493459      0.206568      0.286890      0.000000

     2   2 0 0    -11.312099    -15.023361    -12.104560     15.815822
     2   1 1 0     -0.164134      1.149494      0.335311     -1.648939
     2   1 0 1      0.765536      0.054667     -0.251680      0.962548
     2   0 2 0    -12.881379    -55.387372    -47.358391     89.864384
     2   0 1 1     -1.969541      0.022018      0.320515     -2.312073

 Total times  cpu:       90.2s     wall:       92.9s
