 Output coordinates in angstroms (scale by  1.889725989 to convert to a.u.)

  No.       Tag          Charge          X              Y              Z
 ---- ---------------- ---------- -------------- -------------- --------------
    1 H                    1.0000     0.45702107    -1.63174773     0.78857687
    2 N                    7.0000     0.23616506    -1.22924561    -0.09824637
    3 C                    6.0000    -0.42748187    -0.02114609     0.03395304
    4 H                    1.0000    -1.51697132     0.00488043    -0.12981864
    5 F                    9.0000     0.21907623     1.15094035    -0.01941687

         Total DFT energy =     -193.794447963298
         Total DFT energy =     -193.794447958595

 Vector   10  Occ=1.000000D+00  E=-3.836386D-01

 Vector   11  Occ=1.000000D+00  E=-3.010064D-01

 Vector   12  Occ=1.000000D+00  E=-2.003659D-01

 Vector   13  Occ=0.000000D+00  E=-9.761965D-02

 Vector   14  Occ=0.000000D+00  E= 9.349807D-02

 Vector   15  Occ=0.000000D+00  E= 1.347927D-01

 Vector   16  Occ=0.000000D+00  E= 1.768794D-01

 Vector   17  Occ=0.000000D+00  E= 2.906908D-01

 Vector   18  Occ=0.000000D+00  E= 5.066175D-01

 Vector   19  Occ=0.000000D+00  E= 5.188191D-01

 Vector   20  Occ=0.000000D+00  E= 5.735543D-01

 Vector   21  Occ=0.000000D+00  E= 6.671081D-01

 Vector   22  Occ=0.000000D+00  E= 7.182775D-01

 Vector    2  Occ=1.000000D+00  E=-1.423942D+01

 Vector    3  Occ=1.000000D+00  E=-1.029373D+01

 Vector    4  Occ=1.000000D+00  E=-1.230325D+00

 Vector    5  Occ=1.000000D+00  E=-8.354232D-01

 Vector    6  Occ=1.000000D+00  E=-6.376950D-01

 Vector    7  Occ=1.000000D+00  E=-5.272002D-01

 Vector    8  Occ=1.000000D+00  E=-4.911085D-01

 Vector    9  Occ=1.000000D+00  E=-4.590331D-01

 Vector   10  Occ=1.000000D+00  E=-3.836386D-01

 Vector   11  Occ=1.000000D+00  E=-3.010064D-01

 Vector   12  Occ=1.000000D+00  E=-2.003659D-01

 Vector   13  Occ=0.000000D+00  E=-9.761965D-02

 Vector   14  Occ=0.000000D+00  E= 9.349807D-02

 Vector   15  Occ=0.000000D+00  E= 1.347927D-01

 Vector   16  Occ=0.000000D+00  E= 1.768794D-01

 Vector   17  Occ=0.000000D+00  E= 2.906908D-01

 Vector   18  Occ=0.000000D+00  E= 5.066175D-01

 Vector   19  Occ=0.000000D+00  E= 5.188191D-01

 Vector   20  Occ=0.000000D+00  E= 5.735543D-01

 Vector   21  Occ=0.000000D+00  E= 6.671081D-01

 Vector   22  Occ=0.000000D+00  E= 7.182775D-01

         Total DFT energy =     -193.746956483176

                    DFT Final Alpha Molecular Orbital Analysis
                    ------------------------------------------

 Vector    1  Occ=1.000000D+00  E=-2.463019D+01

 Vector    2  Occ=1.000000D+00  E=-1.432156D+01

 Vector    3  Occ=1.000000D+00  E=-1.021308D+01

 Vector    4  Occ=1.000000D+00  E=-1.198105D+00

 Vector    5  Occ=1.000000D+00  E=-9.008434D-01

 Vector    6  Occ=1.000000D+00  E=-6.324536D-01

 Vector    7  Occ=1.000000D+00  E=-5.090080D-01

 Vector    8  Occ=1.000000D+00  E=-5.009747D-01

 Vector    9  Occ=1.000000D+00  E=-4.432171D-01

 Vector   10  Occ=1.000000D+00  E=-3.740645D-01

 Vector   11  Occ=1.000000D+00  E=-3.372979D-01

 Vector   12  Occ=1.000000D+00  E=-3.133718D-01

 Vector   13  Occ=1.000000D+00  E=-1.496223D-01

 Vector   14  Occ=0.000000D+00  E= 7.950621D-02

 Vector   15  Occ=0.000000D+00  E= 1.258169D-01

 Vector   16  Occ=0.000000D+00  E= 1.814589D-01

 Vector   17  Occ=0.000000D+00  E= 2.738385D-01

 Vector   18  Occ=0.000000D+00  E= 5.202333D-01

 Vector   19  Occ=0.000000D+00  E= 5.269552D-01

 Vector   20  Occ=0.000000D+00  E= 5.669959D-01

 Vector   21  Occ=0.000000D+00  E= 6.357747D-01

 Vector   22  Occ=0.000000D+00  E= 6.719241D-01

 Vector   23  Occ=0.000000D+00  E= 7.454218D-01

 Vector    1  Occ=1.000000D+00  E=-2.462492D+01

 Vector    2  Occ=1.000000D+00  E=-1.429960D+01

 Vector    3  Occ=1.000000D+00  E=-1.019822D+01

 Vector    4  Occ=1.000000D+00  E=-1.186649D+00

 Vector    5  Occ=1.000000D+00  E=-8.473346D-01

 Vector    6  Occ=1.000000D+00  E=-6.003889D-01

 Vector    7  Occ=1.000000D+00  E=-4.908934D-01

 Vector    8  Occ=1.000000D+00  E=-4.822589D-01

 Vector    9  Occ=1.000000D+00  E=-4.084438D-01

 Vector   10  Occ=1.000000D+00  E=-3.596014D-01

 Vector   11  Occ=1.000000D+00  E=-2.991508D-01

 Vector   12  Occ=0.000000D+00  E=-1.437921D-01

 Vector   13  Occ=0.000000D+00  E=-1.834271D-02

 Vector   14  Occ=0.000000D+00  E= 1.085096D-01

 Vector   15  Occ=0.000000D+00  E= 1.497440D-01

 Vector   16  Occ=0.000000D+00  E= 2.159672D-01

 Vector   17  Occ=0.000000D+00  E= 3.082923D-01

 Vector   18  Occ=0.000000D+00  E= 5.493910D-01

 Vector   19  Occ=0.000000D+00  E= 5.799398D-01

 Vector   20  Occ=0.000000D+00  E= 6.026039D-01

 Vector   21  Occ=0.000000D+00  E= 6.923483D-01

 Vector   22  Occ=0.000000D+00  E= 7.032759D-01

 Vector   23  Occ=0.000000D+00  E= 8.023874D-01

     Multipole analysis of the density
     ---------------------------------

     L   x y z        total         alpha         beta         nuclear
     -   - - -        -----         -----         ----         -------
     0   0 0 0      0.000000    -13.000000    -11.000000     24.000000

     1   1 0 0     -0.290159     -0.036980     -0.253178      0.000000
     1   0 1 0     -0.303146      0.989706     -1.292852      0.000000
     1   0 0 1      0.505324      0.208815      0.296509      0.000000

     2   2 0 0    -11.284717    -14.995031    -12.105508     15.815822
     2   1 1 0     -0.174255      1.139916      0.334768     -1.648939
     2   1 0 1      0.778870      0.066227     -0.249905      0.962548
     2   0 2 0    -12.941160    -55.379556    -47.425988     89.864384
     2   0 1 1     -2.006481      0.000859      0.304733     -2.312073

 Total times  cpu:       94.7s     wall:       98.3s
