============================== echo of input deck ==============================
echo

start

geometry noautoz units angstrom
 O 0 0 -0.60000000
 O 0 0  0.60000000
end

basis spherical
 * library "DZVP (DFT Orbital)"
end

dft
 grid xfine
 iterations 100
 XC b3lyp
 odft
 mult 3
end

driver
 maxiter 100
end

relativistic
   zora on
end

task sodft optimize
task sodft freq
================================================================================

         Total DFT energy =   -150.507608744679
@ Step       Energy      Delta E   Gmax     Grms     Xrms     Xmax   Walltime
@ ---- ---------------- -------- -------- -------- -------- -------- --------
@    0    -150.50760874  0.0D+00  0.03590  0.02073  0.00000  0.00000     14.9
         Total DFT energy =   -150.504692306641
         Total DFT energy =   -150.508328885454

 Vector   13  Occ=1.000000D+00  E=-4.647093D-01

 Vector   14  Occ=1.000000D+00  E=-4.640065D-01

 Vector   15  Occ=1.000000D+00  E=-3.223704D-01

 Vector   16  Occ=1.000000D+00  E=-3.212739D-01

 Vector   17  Occ=0.000000D+00  E=-1.293588D-01

 Vector   18  Occ=0.000000D+00  E=-1.284129D-01

 Vector   19  Occ=0.000000D+00  E= 1.474707D-01

 Vector   20  Occ=0.000000D+00  E= 1.845055D-01

 Vector   21  Occ=0.000000D+00  E= 4.405324D-01

 Vector   22  Occ=0.000000D+00  E= 4.609012D-01

 Vector   23  Occ=0.000000D+00  E= 4.839270D-01

 Vector   24  Occ=0.000000D+00  E= 4.846462D-01

 Vector   25  Occ=0.000000D+00  E= 5.266054D-01

 Vector   26  Occ=0.000000D+00  E= 5.274001D-01

@    1    -150.50832889 -7.2D-04  0.00330  0.00190  0.01324  0.02293     21.8
         Total DFT energy =   -150.508335819249

 Vector    5  Occ=1.000000D+00  E=-1.307972D+00

 Vector    6  Occ=1.000000D+00  E=-1.249840D+00

 Vector    7  Occ=1.000000D+00  E=-8.497421D-01

 Vector    8  Occ=1.000000D+00  E=-7.612020D-01

 Vector    9  Occ=1.000000D+00  E=-5.678709D-01

 Vector   10  Occ=1.000000D+00  E=-5.670612D-01

 Vector   11  Occ=1.000000D+00  E=-5.543464D-01

 Vector   12  Occ=1.000000D+00  E=-5.143578D-01

 Vector   13  Occ=1.000000D+00  E=-4.653924D-01

 Vector   14  Occ=1.000000D+00  E=-4.646897D-01

 Vector   15  Occ=1.000000D+00  E=-3.217133D-01

 Vector   16  Occ=1.000000D+00  E=-3.206162D-01

 Vector   17  Occ=0.000000D+00  E=-1.286744D-01

 Vector   18  Occ=0.000000D+00  E=-1.277282D-01

 Vector   19  Occ=0.000000D+00  E= 1.496069D-01

 Vector   20  Occ=0.000000D+00  E= 1.865078D-01

 Vector   21  Occ=0.000000D+00  E= 4.413627D-01

 Vector   22  Occ=0.000000D+00  E= 4.619250D-01

 Vector   23  Occ=0.000000D+00  E= 4.838109D-01

 Vector   24  Occ=0.000000D+00  E= 4.845283D-01

 Vector   25  Occ=0.000000D+00  E= 5.264246D-01

 Vector   26  Occ=0.000000D+00  E= 5.272181D-01

         Total DFT energy =   -150.508335862785

 Vector    5  Occ=1.000000D+00  E=-1.308126D+00

 Vector    6  Occ=1.000000D+00  E=-1.250003D+00

 Vector    7  Occ=1.000000D+00  E=-8.496716D-01

 Vector    8  Occ=1.000000D+00  E=-7.611337D-01

 Vector    9  Occ=1.000000D+00  E=-5.679319D-01

 Vector   10  Occ=1.000000D+00  E=-5.671223D-01

 Vector   11  Occ=1.000000D+00  E=-5.543686D-01

 Vector   12  Occ=1.000000D+00  E=-5.143735D-01

 Vector   13  Occ=1.000000D+00  E=-4.654588D-01

 Vector   14  Occ=1.000000D+00  E=-4.647560D-01

 Vector   15  Occ=1.000000D+00  E=-3.216434D-01

 Vector   16  Occ=1.000000D+00  E=-3.205463D-01

 Vector   17  Occ=0.000000D+00  E=-1.286019D-01

 Vector   18  Occ=0.000000D+00  E=-1.276557D-01

 Vector   19  Occ=0.000000D+00  E= 1.498246D-01

 Vector   20  Occ=0.000000D+00  E= 1.867114D-01

 Vector   21  Occ=0.000000D+00  E= 4.414491D-01

 Vector   22  Occ=0.000000D+00  E= 4.620313D-01

 Vector   23  Occ=0.000000D+00  E= 4.838002D-01

 Vector   24  Occ=0.000000D+00  E= 4.845175D-01

 Vector   25  Occ=0.000000D+00  E= 5.264076D-01

 Vector   26  Occ=0.000000D+00  E= 5.272010D-01

@    2    -150.50833586 -7.0D-06  0.00000  0.00000  0.00123  0.00212     27.5
@    2    -150.50833586 -7.0D-06  0.00000  0.00000  0.00123  0.00212     27.5

 Output coordinates in angstroms (scale by  1.889725989 to convert to a.u.)

  No.       Tag          Charge          X              Y              Z
 ---- ---------------- ---------- -------------- -------------- --------------
    1 O                    8.0000     0.00000000     0.00000000    -0.61101174
    2 O                    8.0000     0.00000000     0.00000000     0.61101174

         Total DFT energy =   -150.508335863319

                       DFT Final Molecular Orbital Analysis
                       ------------------------------------

 Vector    5  Occ=1.000000D+00  E=-1.308128D+00

 Vector    6  Occ=1.000000D+00  E=-1.250005D+00

 Vector    7  Occ=1.000000D+00  E=-8.496736D-01

 Vector    8  Occ=1.000000D+00  E=-7.611357D-01

 Vector    9  Occ=1.000000D+00  E=-5.679336D-01

 Vector   10  Occ=1.000000D+00  E=-5.671240D-01

 Vector   11  Occ=1.000000D+00  E=-5.543707D-01

 Vector   12  Occ=1.000000D+00  E=-5.143756D-01

 Vector   13  Occ=1.000000D+00  E=-4.654604D-01

 Vector   14  Occ=1.000000D+00  E=-4.647577D-01

 Vector   15  Occ=1.000000D+00  E=-3.216452D-01

 Vector   16  Occ=1.000000D+00  E=-3.205481D-01

 Vector   17  Occ=0.000000D+00  E=-1.286036D-01

 Vector   18  Occ=0.000000D+00  E=-1.276574D-01

 Vector   19  Occ=0.000000D+00  E= 1.498251D-01

 Vector   20  Occ=0.000000D+00  E= 1.867124D-01

 Vector   21  Occ=0.000000D+00  E= 4.414516D-01

 Vector   22  Occ=0.000000D+00  E= 4.620333D-01

 Vector   23  Occ=0.000000D+00  E= 4.838007D-01

 Vector   24  Occ=0.000000D+00  E= 4.845180D-01

 Vector   25  Occ=0.000000D+00  E= 5.264078D-01

 Vector   26  Occ=0.000000D+00  E= 5.272012D-01

     Multipole analysis of the density
     ---------------------------------

     L   x y z        total         alpha         beta         nuclear
     -   - - -        -----         -----         ----         -------
     0   0 0 0      0.000000     -8.999996     -7.000004     16.000000

     1   1 0 0      0.000000      0.000000      0.000000      0.000000
     1   0 1 0      0.000000      0.000000      0.000000      0.000000
     1   0 0 1     -0.000002     -0.000001     -0.000001      0.000000

     2   2 0 0     -7.489238     -4.322032     -3.167205      0.000000
     2   1 1 0      0.000000      0.000000      0.000000      0.000000
     2   1 0 1     -0.000002      0.000000     -0.000001      0.000000
     2   0 2 0     -7.489238     -4.322032     -3.167205      0.000000
     2   0 1 1     -0.000002      0.000000     -0.000001      0.000000

         Total DFT energy =   -150.508335865949
         Total DFT energy =   -150.508335862755
         Total DFT energy =   -150.508335862500
         Total DFT energy =   -150.508335866188
         Total DFT energy =   -150.508335502771
         Total DFT energy =   -150.508335434771
 Zero-Point correction to Energy  =    2.316 kcal/mol  (  0.003690 au)
 Thermal correction to Energy     =    3.798 kcal/mol  (  0.006053 au)
 Thermal correction to Enthalpy   =    4.390 kcal/mol  (  0.006996 au)
 Total Entropy                    =   46.831 cal/mol-K
   - Translational                =   36.304 cal/mol-K (mol. weight =  31.9898)
   - Rotational                   =   10.520 cal/mol-K (symmetry #  =        2)
   - Vibrational                  =    0.007 cal/mol-K
   - Translational                  =    2.979 cal/mol-K
   - Rotational                     =    1.986 cal/mol-K
   - Vibrational                    =    0.049 cal/mol-K
 P.Frequency        0.00        0.00        0.00        0.00        0.00     1620.65
 Total times  cpu:       46.1s     wall:       47.5s
