============================== echo of input deck ==============================
#
# Test for CCSD[T] & CCDS(T) codes in the TCE module
# Reference data obtained by an independent code are
#
# CCSD(T) -0.21632467284
# CCSD[T] -0.21640986353
#
# in units of hartree.
#
# The (T) & [T] codes and the reference data have been
# provided by Alex A. Auer (University of Waterloo)
#
start tce_ccsd_t_h2o

echo

geometry units bohr
O     0.00000000     0.00000000     0.22138519
H     0.00000000    -1.43013023    -0.88554075
H     0.00000000     1.43013023    -0.88554075
end

basis spherical
H library cc-pVDZ
O library cc-pVDZ
end

scf
thresh 1.0e-10
tol2e 1.0e-10
singlet
rhf
end

tce
ccsd(t)
io ga
end

task tce energy
================================================================================

 Output coordinates in a.u. (scale by  1.000000000 to convert to a.u.)

  No.       Tag          Charge          X              Y              Z
 ---- ---------------- ---------- -------------- -------------- --------------
    1 O                    8.0000     0.00000000     0.00000000     0.22138519
    2 H                    1.0000     1.43013023     0.00000000    -0.88554075
    3 H                    1.0000    -1.43013023     0.00000000    -0.88554075

         Total SCF energy =    -76.026807857260

 Vector    2  Occ=2.000000E+00  E=-1.336810E+00  Symmetry=a1

 Vector    3  Occ=2.000000E+00  E=-6.994436E-01  Symmetry=b1

 Vector    4  Occ=2.000000E+00  E=-5.666047E-01  Symmetry=a1

 Vector    5  Occ=2.000000E+00  E=-4.931619E-01  Symmetry=b2

 Vector    6  Occ=0.000000E+00  E= 1.856128E-01  Symmetry=a1

 Vector    7  Occ=0.000000E+00  E= 2.562882E-01  Symmetry=b1

 Vector    8  Occ=0.000000E+00  E= 7.895205E-01  Symmetry=b1

 Vector    9  Occ=0.000000E+00  E= 8.545358E-01  Symmetry=a1

 Vector   10  Occ=0.000000E+00  E= 1.163485E+00  Symmetry=a1

 Vector   11  Occ=0.000000E+00  E= 1.200389E+00  Symmetry=b2

 Vector   12  Occ=0.000000E+00  E= 1.253280E+00  Symmetry=b1

 Vector   13  Occ=0.000000E+00  E= 1.444621E+00  Symmetry=a1

 Vector   14  Occ=0.000000E+00  E= 1.476304E+00  Symmetry=a2

 Vector   15  Occ=0.000000E+00  E= 1.674768E+00  Symmetry=b2

       Multipole analysis of the density wrt the origin
       ------------------------------------------------

     L   x y z        total         open         nuclear
     -   - - -        -----         ----         -------
     0   0 0 0      0.000000      0.000000     10.000000

     1   1 0 0      0.000000      0.000000      0.000000
     1   0 1 0      0.000000      0.000000      0.000000
     1   0 0 1     -0.808895      0.000000      0.000000

     2   2 0 0     -3.064509      0.000000      4.090545
     2   1 1 0      0.000000      0.000000      0.000000
     2   1 0 1      0.000000      0.000000      0.000000
     2   0 2 0     -5.228664      0.000000      0.000000
     2   0 1 1      0.000000      0.000000      0.000000

 CCSD total energy / hartree       =       -76.240077811545561
 CCSD(T) total energy / hartree       =       -76.243132530188618
 Total times  cpu:       25.8s     wall:       27.0s
