============================== echo of input deck ==============================
start tce_rcr2_eom_t_ch_rohf

echo

##memory 1824 mb

geometry units angstrom
symmetry c2v
C   0.0000000000   0.0000000000   0.0000000000
H   0.0000000000   0.0000000000   1.1198000000
end

BASIS spherical
H    S
        33.865014000      0.00606800
         5.094788000      0.04531600
         1.158786000      0.20284600
         0.325840000      0.50370900
H    S
         0.102741000      1.00000000
H    S
         0.032400000      1.00000000
H    P
         1.158800000      0.18844000
         0.325800000      0.88242000
H    P
         0.102700000      0.11780000
         0.032400000      0.00420000
C    S
      5240.635300000      0.00093700
       782.204800000      0.00722800
       178.350830000      0.03634400
        50.815942000      0.13060000
        16.823562000      0.31893100
C    S
         6.175776000      0.43874200
         2.418049000      0.21497400
C    S
         0.511900000      1.00000000
C    S
         0.156590000      1.00000000
C    S
         0.047900000      1.00000000
C    P
        18.841800000      0.01388700
         4.159240000      0.08627900
         1.206710000      0.28874400
         0.385540000      0.49941100
C    P
         0.121940000      1.00000000
C    P
         0.038568000      1.00000000
C    D
         1.206700000      0.26285000
         0.385500000      0.80430000
C    D
         0.121900000      0.65350000
         0.038600000      0.86360000
END

scf
thresh 1.0e-10
tol2e 1.0e-10
doublet
rohf
end

tce
freeze atomic
r-creom2(t)
tilesize 10
thresh 1.0d-6
nroots 2
end

task tce energy

================================================================================

 Output coordinates in angstroms (scale by  1.889725989 to convert to a.u.)

  No.       Tag          Charge          X              Y              Z
 ---- ---------------- ---------- -------------- -------------- --------------
    1 C                    6.0000     0.00000000     0.00000000    -0.15997143
    2 H                    1.0000     0.00000000     0.00000000     0.95982857

         Total SCF energy =    -38.273017419157

 Vector    2  Occ=2.000000D+00  E=-8.303779D-01  Symmetry=a1

 Vector    3  Occ=2.000000D+00  E=-4.551808D-01  Symmetry=a1

 Vector    4  Occ=1.000000D+00  E=-1.339236D-01  Symmetry=b1

 Vector    5  Occ=0.000000D+00  E= 2.564756D-02  Symmetry=b2

 Vector    6  Occ=0.000000D+00  E= 3.665571D-02  Symmetry=a1

 Vector    7  Occ=0.000000D+00  E= 1.044442D-01  Symmetry=a1

 Vector    8  Occ=0.000000D+00  E= 1.079290D-01  Symmetry=b1

 Vector    9  Occ=0.000000D+00  E= 1.342459D-01  Symmetry=b2

 Vector   10  Occ=0.000000D+00  E= 1.765988D-01  Symmetry=a1

 Vector   11  Occ=0.000000D+00  E= 1.856999D-01  Symmetry=a1

 Vector   12  Occ=0.000000D+00  E= 1.882140D-01  Symmetry=b2

 Vector   13  Occ=0.000000D+00  E= 1.921703D-01  Symmetry=b1

 Vector   14  Occ=0.000000D+00  E= 2.058621D-01  Symmetry=a2

 Vector   15  Occ=0.000000D+00  E= 2.068785D-01  Symmetry=a1

 Vector   16  Occ=0.000000D+00  E= 3.206241D-01  Symmetry=a1

 Vector   17  Occ=0.000000D+00  E= 3.535166D-01  Symmetry=b1

 Vector   18  Occ=0.000000D+00  E= 3.551960D-01  Symmetry=b2

 Vector   19  Occ=0.000000D+00  E= 4.799639D-01  Symmetry=a1

 Vector   20  Occ=0.000000D+00  E= 6.350295D-01  Symmetry=a1

       Multipole analysis of the density wrt the origin
       ------------------------------------------------

     L   x y z        total         open         nuclear
     -   - - -        -----         ----         -------
     0   0 0 0      0.000000     -1.000000      7.000000

     1   1 0 0      0.000000      0.000000      0.000000
     1   0 1 0      0.000000      0.000000      0.000000
     1   0 0 1      0.616248      0.211397      0.000000

     2   2 0 0     -5.783214     -2.339529      0.000000
     2   1 1 0      0.000000      0.000000      0.000000
     2   1 0 1      0.000000      0.000000      0.000000
     2   0 2 0     -4.189546     -0.779843      0.000000
     2   0 1 1      0.000000      0.000000      0.000000

 CCSD total energy / hartree       =       -38.385672821790521
 Total times  cpu:       12.0s     wall:       16.8s
