 Output coordinates in a.u. (scale by  1.000000000 to convert to a.u.)

  No.       Tag          Charge          X              Y              Z
 ---- ---------------- ---------- -------------- -------------- --------------
    1 Xe                  54.0000     0.00000000     0.00000000     0.00000000

         Total DFT energy =    -7499.170321625115

                       DFT Final Molecular Orbital Analysis
                       ------------------------------------

 Vector   17  Occ=2.000000D+00  E=-5.272162D+00

 Vector   18  Occ=2.000000D+00  E=-5.272162D+00

 Vector   19  Occ=2.000000D+00  E=-2.282008D+00

 Vector   20  Occ=2.000000D+00  E=-2.282008D+00

 Vector   21  Occ=2.000000D+00  E=-2.282007D+00

 Vector   22  Occ=2.000000D+00  E=-2.282007D+00

 Vector   23  Occ=2.000000D+00  E=-2.282007D+00

 Vector   24  Occ=2.000000D+00  E=-7.078225D-01

 Vector   25  Occ=2.000000D+00  E=-3.086993D-01

 Vector   26  Occ=2.000000D+00  E=-3.086992D-01

 Vector   27  Occ=2.000000D+00  E=-3.086992D-01

 Vector   28  Occ=0.000000D+00  E= 1.779445D-01

 Vector   29  Occ=0.000000D+00  E= 1.779447D-01

 Vector   30  Occ=0.000000D+00  E= 1.779450D-01

 Vector   31  Occ=0.000000D+00  E= 2.570410D-01

 Vector   32  Occ=0.000000D+00  E= 2.839262D-01

 Vector   33  Occ=0.000000D+00  E= 2.839263D-01

 Vector   34  Occ=0.000000D+00  E= 2.839266D-01

 Vector   35  Occ=0.000000D+00  E= 2.839267D-01

 Vector   36  Occ=0.000000D+00  E= 2.839268D-01

 Total times  cpu:        5.1s     wall:        5.3s
