         Total DFT energy =    -6920.459862000377
@ Step       Energy      Delta E   Gmax     Grms     Xrms     Xmax   Walltime
@ ---- ---------------- -------- -------- -------- -------- -------- --------
@    0   -6920.45986200  0.0D+00  0.00301  0.00174  0.00000  0.00000      4.2
         Total DFT energy =    -6920.459883995102

 Vector   25  Occ=2.000000D+00  E=-4.139731D-01  Symmetry=a1

 Vector   26  Occ=2.000000D+00  E=-2.833630D-01  Symmetry=e

 Vector   27  Occ=2.000000D+00  E=-2.833630D-01  Symmetry=e

 Vector   28  Occ=0.000000D+00  E=-3.650471D-02  Symmetry=a1

 Vector   29  Occ=0.000000D+00  E= 1.544099D-01  Symmetry=a1

 Vector   30  Occ=0.000000D+00  E= 1.848197D-01  Symmetry=e

 Vector   31  Occ=0.000000D+00  E= 1.848197D-01  Symmetry=e

 Vector   32  Occ=0.000000D+00  E= 2.769039D-01  Symmetry=e

 Vector   33  Occ=0.000000D+00  E= 2.769039D-01  Symmetry=e

 Vector   34  Occ=0.000000D+00  E= 2.851176D-01  Symmetry=a1

 Vector   35  Occ=0.000000D+00  E= 3.038087D-01  Symmetry=b1

 Vector   36  Occ=0.000000D+00  E= 3.038087D-01  Symmetry=b2

 Vector   37  Occ=0.000000D+00  E= 4.762795D-01  Symmetry=a1

 Vector   38  Occ=0.000000D+00  E= 8.095659D-01  Symmetry=a1

         Total DFT energy =    -6920.459885062064

 Vector   17  Occ=2.000000D+00  E=-4.765186D+00  Symmetry=e

 Vector   18  Occ=2.000000D+00  E=-4.765186D+00  Symmetry=e

 Vector   19  Occ=2.000000D+00  E=-2.047684D+00  Symmetry=a1

 Vector   20  Occ=2.000000D+00  E=-2.041776D+00  Symmetry=e

 Vector   21  Occ=2.000000D+00  E=-2.041776D+00  Symmetry=e

 Vector   22  Occ=2.000000D+00  E=-2.028284D+00  Symmetry=b1

 Vector   23  Occ=2.000000D+00  E=-2.028284D+00  Symmetry=b2

 Vector   24  Occ=2.000000D+00  E=-6.732126D-01  Symmetry=a1

 Vector   25  Occ=2.000000D+00  E=-4.138475D-01  Symmetry=a1

 Vector   26  Occ=2.000000D+00  E=-2.833615D-01  Symmetry=e

 Vector   27  Occ=2.000000D+00  E=-2.833615D-01  Symmetry=e

 Vector   28  Occ=0.000000D+00  E=-3.691003D-02  Symmetry=a1

 Vector   29  Occ=0.000000D+00  E= 1.544495D-01  Symmetry=a1

 Vector   30  Occ=0.000000D+00  E= 1.848141D-01  Symmetry=e

 Vector   31  Occ=0.000000D+00  E= 1.848141D-01  Symmetry=e

 Vector   32  Occ=0.000000D+00  E= 2.769328D-01  Symmetry=e

 Vector   33  Occ=0.000000D+00  E= 2.769328D-01  Symmetry=e

 Vector   34  Occ=0.000000D+00  E= 2.851526D-01  Symmetry=a1

 Vector   35  Occ=0.000000D+00  E= 3.038060D-01  Symmetry=b1

 Vector   36  Occ=0.000000D+00  E= 3.038060D-01  Symmetry=b2

 Vector   37  Occ=0.000000D+00  E= 4.760713D-01  Symmetry=a1

 Vector   38  Occ=0.000000D+00  E= 8.090778D-01  Symmetry=a1

@    1   -6920.45988506 -2.3D-05  0.00003  0.00001  0.00441  0.00763      8.6
         Total DFT energy =    -6920.459885074390

 Vector   17  Occ=2.000000D+00  E=-4.765178D+00  Symmetry=e

 Vector   18  Occ=2.000000D+00  E=-4.765178D+00  Symmetry=e

 Vector   19  Occ=2.000000D+00  E=-2.047676D+00  Symmetry=a1

 Vector   20  Occ=2.000000D+00  E=-2.041768D+00  Symmetry=e

 Vector   21  Occ=2.000000D+00  E=-2.041768D+00  Symmetry=e

 Vector   22  Occ=2.000000D+00  E=-2.028277D+00  Symmetry=b1

 Vector   23  Occ=2.000000D+00  E=-2.028277D+00  Symmetry=b2

 Vector   24  Occ=2.000000D+00  E=-6.732010D-01  Symmetry=a1

 Vector   25  Occ=2.000000D+00  E=-4.138373D-01  Symmetry=a1

 Vector   26  Occ=2.000000D+00  E=-2.833575D-01  Symmetry=e

 Vector   27  Occ=2.000000D+00  E=-2.833575D-01  Symmetry=e

 Vector   28  Occ=0.000000D+00  E=-3.692257D-02  Symmetry=a1

 Vector   29  Occ=0.000000D+00  E= 1.544535D-01  Symmetry=a1

 Vector   30  Occ=0.000000D+00  E= 1.848159D-01  Symmetry=e

 Vector   31  Occ=0.000000D+00  E= 1.848159D-01  Symmetry=e

 Vector   32  Occ=0.000000D+00  E= 2.769380D-01  Symmetry=e

 Vector   33  Occ=0.000000D+00  E= 2.769380D-01  Symmetry=e

 Vector   34  Occ=0.000000D+00  E= 2.851575D-01  Symmetry=a1

 Vector   35  Occ=0.000000D+00  E= 3.038094D-01  Symmetry=b1

 Vector   36  Occ=0.000000D+00  E= 3.038094D-01  Symmetry=b2

 Vector   37  Occ=0.000000D+00  E= 4.760665D-01  Symmetry=a1

 Vector   38  Occ=0.000000D+00  E= 8.090622D-01  Symmetry=a1

         Total DFT energy =    -6920.459885074466

                       DFT Final Molecular Orbital Analysis
                       ------------------------------------

 Vector   17  Occ=2.000000D+00  E=-4.765173D+00  Symmetry=e

 Vector   18  Occ=2.000000D+00  E=-4.765173D+00  Symmetry=e

 Vector   19  Occ=2.000000D+00  E=-2.047671D+00  Symmetry=a1

 Vector   20  Occ=2.000000D+00  E=-2.041763D+00  Symmetry=e

 Vector   21  Occ=2.000000D+00  E=-2.041763D+00  Symmetry=e

 Vector   22  Occ=2.000000D+00  E=-2.028272D+00  Symmetry=b1

 Vector   23  Occ=2.000000D+00  E=-2.028272D+00  Symmetry=b2

 Vector   24  Occ=2.000000D+00  E=-6.731992D-01  Symmetry=a1

 Vector   25  Occ=2.000000D+00  E=-4.138362D-01  Symmetry=a1

 Vector   26  Occ=2.000000D+00  E=-2.833556D-01  Symmetry=e

 Vector   27  Occ=2.000000D+00  E=-2.833556D-01  Symmetry=e

 Vector   28  Occ=0.000000D+00  E=-3.692182D-02  Symmetry=a1

 Vector   29  Occ=0.000000D+00  E= 1.544543D-01  Symmetry=a1

 Vector   30  Occ=0.000000D+00  E= 1.848169D-01  Symmetry=e

 Vector   31  Occ=0.000000D+00  E= 1.848169D-01  Symmetry=e

 Vector   32  Occ=0.000000D+00  E= 2.769395D-01  Symmetry=e

 Vector   33  Occ=0.000000D+00  E= 2.769395D-01  Symmetry=e

 Vector   34  Occ=0.000000D+00  E= 2.851589D-01  Symmetry=a1

 Vector   35  Occ=0.000000D+00  E= 3.038111D-01  Symmetry=b1

 Vector   36  Occ=0.000000D+00  E= 3.038111D-01  Symmetry=b2

 Vector   37  Occ=0.000000D+00  E= 4.760675D-01  Symmetry=a1

 Vector   38  Occ=0.000000D+00  E= 8.090619D-01  Symmetry=a1

     Multipole analysis of the density
     ---------------------------------

     L   x y z        total         alpha         beta         nuclear
     -   - - -        -----         -----         ----         -------
     0   0 0 0      0.000000    -27.000000    -27.000000     54.000000

     1   1 0 0      0.000000      0.000000      0.000000      0.000000
     1   0 1 0      0.000000      0.000000      0.000000      0.000000
     1   0 0 1     -0.263901     -0.332113     -0.332113      0.400324

     2   2 0 0    -22.751107    -11.375554    -11.375554      0.000000
     2   1 1 0      0.000000      0.000000      0.000000      0.000000
     2   1 0 1      0.000000      0.000000      0.000000      0.000000
     2   0 2 0    -22.751107    -11.375554    -11.375554      0.000000
     2   0 1 1      0.000000      0.000000      0.000000      0.000000

@    2   -6920.45988507 -1.2D-08  0.00000  0.00000  0.00004  0.00007     12.2
@    2   -6920.45988507 -1.2D-08  0.00000  0.00000  0.00004  0.00007     12.2

 Output coordinates in angstroms (scale by  1.889725989 to convert to a.u.)

  No.       Tag          Charge          X              Y              Z
 ---- ---------------- ---------- -------------- -------------- --------------
    1 H                    1.0000     0.00000000     0.00000000    -1.60913364
    2 I                   53.0000     0.00000000     0.00000000     0.03435804

 Total times  cpu:        7.8s     wall:       12.2s
