         Total DFT energy = -14341.075334045237
@ Step       Energy      Delta E   Gmax     Grms     Xrms     Xmax   Walltime
@ ---- ---------------- -------- -------- -------- -------- -------- --------
@    0  -14341.07533405  0.0D+00  0.00795  0.00459  0.00000  0.00000     78.4
         Total DFT energy = -14341.075534066340
         Total DFT energy = -14341.075617621023
@    1  -14341.07561762 -2.8D-04  0.00088  0.00051  0.02207  0.03823    108.9
         Total DFT energy = -14341.075618892060
         Total DFT energy = -14341.075619142832
@    2  -14341.07561914 -1.5D-06  0.00035  0.00020  0.00136  0.00236    138.4
         Total DFT energy = -14341.075618961155

 Vector  115  Occ=0.000000D+00  E= 1.580761D-01

 Vector  116  Occ=0.000000D+00  E= 1.580761D-01

 Vector  117  Occ=0.000000D+00  E= 1.694602D-01

 Vector  118  Occ=0.000000D+00  E= 1.694603D-01

 Vector  119  Occ=0.000000D+00  E= 1.713313D-01

 Vector  120  Occ=0.000000D+00  E= 1.713313D-01

 Vector  121  Occ=0.000000D+00  E= 1.732267D-01

 Vector  122  Occ=0.000000D+00  E= 1.732267D-01

 Vector  123  Occ=0.000000D+00  E= 1.825035D-01

 Vector  124  Occ=0.000000D+00  E= 1.825035D-01

 Vector  125  Occ=0.000000D+00  E= 2.132941D-01

 Vector  126  Occ=0.000000D+00  E= 2.132941D-01

 Vector  127  Occ=0.000000D+00  E= 2.420095D-01

 Vector  128  Occ=0.000000D+00  E= 2.420095D-01

 Vector  129  Occ=0.000000D+00  E= 2.457239D-01

 Vector  130  Occ=0.000000D+00  E= 2.457239D-01

 Vector  131  Occ=0.000000D+00  E= 2.974211D-01

 Vector  132  Occ=0.000000D+00  E= 2.974211D-01

 Vector  133  Occ=0.000000D+00  E= 3.012942D-01

 Vector  134  Occ=0.000000D+00  E= 3.012942D-01

 Vector  135  Occ=0.000000D+00  E= 3.322456D-01

 Vector  136  Occ=0.000000D+00  E= 3.322458D-01

 Vector  137  Occ=0.000000D+00  E= 3.487212D-01

 Vector  138  Occ=0.000000D+00  E= 3.487213D-01

 Vector  139  Occ=0.000000D+00  E= 4.140037D-01

 Vector  140  Occ=0.000000D+00  E= 4.140037D-01

 Vector  141  Occ=0.000000D+00  E= 4.162146D-01

 Vector  142  Occ=0.000000D+00  E= 4.162147D-01

 Vector  143  Occ=0.000000D+00  E= 6.550318D-01

         Total DFT energy = -14341.075619145358

                       DFT Final Molecular Orbital Analysis
                       ------------------------------------

 Vector   93  Occ=1.000000D+00  E=-6.754372D-01

 Vector   94  Occ=1.000000D+00  E=-6.754372D-01

 Vector   95  Occ=1.000000D+00  E=-5.942318D-01

 Vector   96  Occ=1.000000D+00  E=-5.942318D-01

 Vector   97  Occ=1.000000D+00  E=-3.567496D-01

 Vector   98  Occ=1.000000D+00  E=-3.567495D-01

 Vector   99  Occ=1.000000D+00  E=-2.953692D-01

 Vector  100  Occ=1.000000D+00  E=-2.953692D-01

 Vector  101  Occ=1.000000D+00  E=-2.801539D-01

 Vector  102  Occ=1.000000D+00  E=-2.801539D-01

 Vector  103  Occ=1.000000D+00  E=-2.390604D-01

 Vector  104  Occ=1.000000D+00  E=-2.390603D-01

 Vector  105  Occ=1.000000D+00  E=-2.238874D-01

 Vector  106  Occ=1.000000D+00  E=-2.238874D-01

 Vector  107  Occ=0.000000D+00  E=-1.717212D-01

 Vector  108  Occ=0.000000D+00  E=-1.717211D-01

 Vector  109  Occ=0.000000D+00  E= 1.120186D-01

 Vector  110  Occ=0.000000D+00  E= 1.120186D-01

 Vector  111  Occ=0.000000D+00  E= 1.128124D-01

 Vector  112  Occ=0.000000D+00  E= 1.128125D-01

 Vector  113  Occ=0.000000D+00  E= 1.489291D-01

 Vector  114  Occ=0.000000D+00  E= 1.489292D-01

 Vector  115  Occ=0.000000D+00  E= 1.580743D-01

 Vector  116  Occ=0.000000D+00  E= 1.580743D-01

 Vector  117  Occ=0.000000D+00  E= 1.695050D-01

 Vector  118  Occ=0.000000D+00  E= 1.695051D-01

 Vector  119  Occ=0.000000D+00  E= 1.713687D-01

 Vector  120  Occ=0.000000D+00  E= 1.713687D-01

 Vector  121  Occ=0.000000D+00  E= 1.732177D-01

 Vector  122  Occ=0.000000D+00  E= 1.732177D-01

 Vector  123  Occ=0.000000D+00  E= 1.824929D-01

 Vector  124  Occ=0.000000D+00  E= 1.824929D-01

 Vector  125  Occ=0.000000D+00  E= 2.133114D-01

 Vector  126  Occ=0.000000D+00  E= 2.133115D-01

 Vector  127  Occ=0.000000D+00  E= 2.420577D-01

 Vector  128  Occ=0.000000D+00  E= 2.420577D-01

 Vector  129  Occ=0.000000D+00  E= 2.457721D-01

 Vector  130  Occ=0.000000D+00  E= 2.457721D-01

 Vector  131  Occ=0.000000D+00  E= 2.973798D-01

 Vector  132  Occ=0.000000D+00  E= 2.973798D-01

 Vector  133  Occ=0.000000D+00  E= 3.012528D-01

 Vector  134  Occ=0.000000D+00  E= 3.012528D-01

 Vector  135  Occ=0.000000D+00  E= 3.321240D-01

 Vector  136  Occ=0.000000D+00  E= 3.321242D-01

 Vector  137  Occ=0.000000D+00  E= 3.484989D-01

 Vector  138  Occ=0.000000D+00  E= 3.484989D-01

 Vector  139  Occ=0.000000D+00  E= 4.138626D-01

 Vector  140  Occ=0.000000D+00  E= 4.138626D-01

 Vector  141  Occ=0.000000D+00  E= 4.160742D-01

 Vector  142  Occ=0.000000D+00  E= 4.160742D-01

 Vector  143  Occ=0.000000D+00  E= 6.549145D-01

     Multipole analysis of the density
     ---------------------------------

     L   x y z        total         alpha         beta         nuclear
     -   - - -        -----         -----         ----         -------
     0   0 0 0      0.000000    -53.000000    -53.000000    106.000000

     1   1 0 0      0.000002      0.000001      0.000001      0.000000
     1   0 1 0      0.000002      0.000001      0.000001      0.000000
     1   0 0 1     -0.000082     -0.000044     -0.000038      0.000000

     2   2 0 0    -41.950961    -20.975480    -20.975481      0.000000
     2   1 1 0     -0.000002     -0.000001     -0.000001      0.000000
     2   1 0 1      0.000001      0.000001      0.000000      0.000000
     2   0 2 0    -41.950961    -20.975480    -20.975481      0.000000
     2   0 1 1      0.000001      0.000001      0.000000      0.000000

@    3  -14341.07561915 -2.5D-09  0.00019  0.00011  0.00038  0.00066    166.1
@    3  -14341.07561915 -2.5D-09  0.00019  0.00011  0.00038  0.00066    166.1

 Output coordinates in a.u. (scale by  1.000000000 to convert to a.u.)

  No.       Tag          Charge          X              Y              Z
 ---- ---------------- ---------- -------------- -------------- --------------
    1 I                   53.0000     0.00000000     0.00000000    -2.55769045
    2 I                   53.0000     0.00000000     0.00000000     2.55769045

 Total times  cpu:      164.9s     wall:      166.1s
