============================== echo of input deck ==============================
echo

start Ar_scf-mp2_cc-vqz

memory total 1000 mb

geometry
 Ar     0.0 0.0 0.0
end

basis "ao basis" spherical
  * library cc-pvqz
end

mp2
  freeze 0
  scratchdisk 4096
end

task mp2 energy

task direct_mp2 energy

basis "cc-pVQZ-RI" spherical
Ar    S
    454.94536896             1.0000000
Ar    S
    143.62193954             1.0000000
Ar    S
     46.487619905            1.0000000
Ar    S
     13.704394361            1.0000000
Ar    S
      7.6145898914           1.0000000
Ar    S
      4.0833294831           1.0000000
Ar    S
      1.9433229906           1.0000000
Ar    S
      1.0761390638           1.0000000
Ar    S
      0.71072310170          1.0000000
Ar    S
      0.33356013404          1.0000000
Ar    S
      0.19668425832          1.0000000
Ar    P
    205.38210726             1.0000000
Ar    P
     96.617853308            1.0000000
Ar    P
     17.159044646            1.0000000
Ar    P
      8.9961485293           1.0000000
Ar    P
      3.6489071036           1.0000000
Ar    P
      2.0299171020           1.0000000
Ar    P
      1.1284797803           1.0000000
Ar    P
      0.67453887012          1.0000000
Ar    P
      0.39749115679          1.0000000
Ar    D
     56.190604701            1.0000000
Ar    D
     19.414750893            1.0000000
Ar    D
     10.235531027            1.0000000
Ar    D
      5.2549227602           1.0000000
Ar    D
      2.1151960863           1.0000000
Ar    D
      1.3079469525           1.0000000
Ar    D
      0.66777819068          1.0000000
Ar    D
      0.30010790814          1.0000000
Ar    F
     18.300657914            1.0000000
Ar    F
      7.9615730273           1.0000000
Ar    F
      3.5545083768           1.0000000
Ar    F
      1.9293748974           1.0000000
Ar    F
      1.1202405566           1.0000000
Ar    F
      0.54978931186          1.0000000
Ar    G
      5.1967675263           1.0000000
Ar    G
      1.8512921158           1.0000000
Ar    G
      0.91144690895          1.0000000
Ar    H
      1.5143551014           1.0000000
end

set "ri-mp2 basis" "cc-pVQZ-RI"

task rimp2 energy

================================================================================

 Output coordinates in angstroms (scale by  1.889725989 to convert to a.u.)

  No.       Tag          Charge          X              Y              Z
 ---- ---------------- ---------- -------------- -------------- --------------
    1 Ar                  18.0000     0.00000000     0.00000000     0.00000000

         Total SCF energy =   -526.816780174633

 Vector    2  Occ=2.000000D+00  E=-1.232192D+01

 Vector    3  Occ=2.000000D+00  E=-9.571204D+00

 Vector    4  Occ=2.000000D+00  E=-9.571204D+00

 Vector    5  Occ=2.000000D+00  E=-9.571204D+00

 Vector    6  Occ=2.000000D+00  E=-1.277185D+00

 Vector    7  Occ=2.000000D+00  E=-5.908556D-01

 Vector    8  Occ=2.000000D+00  E=-5.908556D-01

 Vector    9  Occ=2.000000D+00  E=-5.908556D-01

 Vector   10  Occ=0.000000D+00  E= 3.870539D-01

 Vector   11  Occ=0.000000D+00  E= 3.870539D-01

 Vector   12  Occ=0.000000D+00  E= 3.870539D-01

 Vector   13  Occ=0.000000D+00  E= 4.783213D-01

 Vector   14  Occ=0.000000D+00  E= 5.831206D-01

 Vector   15  Occ=0.000000D+00  E= 5.831206D-01

 Vector   16  Occ=0.000000D+00  E= 5.831206D-01

 Vector   17  Occ=0.000000D+00  E= 5.831206D-01

 Vector   18  Occ=0.000000D+00  E= 5.831206D-01

 Vector   19  Occ=0.000000D+00  E= 1.801601D+00

       Multipole analysis of the density wrt the origin
       ------------------------------------------------

     L   x y z        total         open         nuclear
     -   - - -        -----         ----         -------
     0   0 0 0      0.000000      0.000000     18.000000

     1   1 0 0      0.000000      0.000000      0.000000
     1   0 1 0      0.000000      0.000000      0.000000
     1   0 0 1      0.000000      0.000000      0.000000

     2   2 0 0     -8.671720      0.000000      0.000000
     2   1 1 0      0.000000      0.000000      0.000000
     2   1 0 1      0.000000      0.000000      0.000000
     2   0 2 0     -8.671720      0.000000      0.000000
     2   0 1 1      0.000000      0.000000      0.000000

          Total MP2 energy          -527.110448613487
         Total SCF energy =   -526.816780174633
          Total MP2 energy          -527.110448613487
         Total SCF energy =   -526.816780174633
          Total MP2 energy          -527.110443784669
 Total times  cpu:        7.1s     wall:        7.3s
