         Total DFT energy =    -7171.717576958495

 Vector   25  Occ=2.000000D+00  E=-4.151558D-01  Symmetry=a1

 Vector   26  Occ=2.000000D+00  E=-2.818547D-01  Symmetry=e

 Vector   27  Occ=2.000000D+00  E=-2.818659D-01  Symmetry=e

 Vector   28  Occ=0.000000D+00  E=-3.558063D-02  Symmetry=a1

 Vector   29  Occ=0.000000D+00  E= 1.508975D-01  Symmetry=a1

 Vector   30  Occ=0.000000D+00  E= 1.809636D-01  Symmetry=e

 Vector   31  Occ=0.000000D+00  E= 1.809636D-01  Symmetry=e

 Vector   32  Occ=0.000000D+00  E= 2.673712D-01  Symmetry=a1

 Vector   33  Occ=0.000000D+00  E= 2.917511D-01  Symmetry=e

 Vector   34  Occ=0.000000D+00  E= 2.917511D-01  Symmetry=e

 Vector   35  Occ=0.000000D+00  E= 3.195413D-01  Symmetry=b1

 Vector   36  Occ=0.000000D+00  E= 3.195413D-01  Symmetry=b2

 Vector   37  Occ=0.000000D+00  E= 4.748811D-01  Symmetry=a1

 Vector   38  Occ=0.000000D+00  E= 8.165567D-01  Symmetry=a1

@ Step       Energy      Delta E   Gmax     Grms     Xrms     Xmax   Walltime
@ ---- ---------------- -------- -------- -------- -------- -------- --------
@    0   -7171.71757696  0.0D+00  0.00182  0.00105  0.00000  0.00000      3.9
         Total DFT energy =    -7171.717584237494

 Vector   17  Occ=2.000000D+00  E=-4.936140D+00  Symmetry=e

 Vector   18  Occ=2.000000D+00  E=-4.937623D+00  Symmetry=e

 Vector   19  Occ=2.000000D+00  E=-2.032118D+00  Symmetry=a1

 Vector   20  Occ=2.000000D+00  E=-2.025726D+00  Symmetry=e

 Vector   21  Occ=2.000000D+00  E=-2.026063D+00  Symmetry=e

 Vector   22  Occ=2.000000D+00  E=-2.011925D+00  Symmetry=b1

 Vector   23  Occ=2.000000D+00  E=-2.011925D+00  Symmetry=b2

 Vector   24  Occ=2.000000D+00  E=-6.996150D-01  Symmetry=a1

 Vector   25  Occ=2.000000D+00  E=-4.154708D-01  Symmetry=a1

 Vector   26  Occ=2.000000D+00  E=-2.818759D-01  Symmetry=e

 Vector   27  Occ=2.000000D+00  E=-2.818657D-01  Symmetry=e

 Vector   28  Occ=0.000000D+00  E=-3.463415D-02  Symmetry=a1

 Vector   29  Occ=0.000000D+00  E= 1.507882D-01  Symmetry=a1

 Vector   30  Occ=0.000000D+00  E= 1.809730D-01  Symmetry=e

 Vector   31  Occ=0.000000D+00  E= 1.809730D-01  Symmetry=e

 Vector   32  Occ=0.000000D+00  E= 2.672682D-01  Symmetry=a1

 Vector   33  Occ=0.000000D+00  E= 2.916778D-01  Symmetry=e

 Vector   34  Occ=0.000000D+00  E= 2.916778D-01  Symmetry=e

 Vector   35  Occ=0.000000D+00  E= 3.195421D-01  Symmetry=b1

 Vector   36  Occ=0.000000D+00  E= 3.195421D-01  Symmetry=b2

 Vector   37  Occ=0.000000D+00  E= 4.753501D-01  Symmetry=a1

 Vector   38  Occ=0.000000D+00  E= 8.177086D-01  Symmetry=a1

         Total DFT energy =    -7171.717584480668

 Vector   17  Occ=2.000000D+00  E=-4.937624D+00  Symmetry=e

 Vector   18  Occ=2.000000D+00  E=-4.936134D+00  Symmetry=e

 Vector   19  Occ=2.000000D+00  E=-2.032120D+00  Symmetry=a1

 Vector   20  Occ=2.000000D+00  E=-2.025869D+00  Symmetry=e

 Vector   21  Occ=2.000000D+00  E=-2.025918D+00  Symmetry=e

 Vector   22  Occ=2.000000D+00  E=-2.011923D+00  Symmetry=b1

 Vector   23  Occ=2.000000D+00  E=-2.011923D+00  Symmetry=b2

 Vector   24  Occ=2.000000D+00  E=-6.996583D-01  Symmetry=a1

 Vector   25  Occ=2.000000D+00  E=-4.155108D-01  Symmetry=a1

 Vector   26  Occ=2.000000D+00  E=-2.818800D-01  Symmetry=e

 Vector   27  Occ=2.000000D+00  E=-2.818693D-01  Symmetry=e

 Vector   28  Occ=0.000000D+00  E=-3.452546D-02  Symmetry=a1

 Vector   29  Occ=0.000000D+00  E= 1.507736D-01  Symmetry=a1

 Vector   30  Occ=0.000000D+00  E= 1.809727D-01  Symmetry=e

 Vector   31  Occ=0.000000D+00  E= 1.809727D-01  Symmetry=e

 Vector   32  Occ=0.000000D+00  E= 2.672531D-01  Symmetry=a1

 Vector   33  Occ=0.000000D+00  E= 2.916661D-01  Symmetry=e

 Vector   34  Occ=0.000000D+00  E= 2.916661D-01  Symmetry=e

 Vector   35  Occ=0.000000D+00  E= 3.195397D-01  Symmetry=b1

 Vector   36  Occ=0.000000D+00  E= 3.195397D-01  Symmetry=b2

 Vector   37  Occ=0.000000D+00  E= 4.754017D-01  Symmetry=a1

 Vector   38  Occ=0.000000D+00  E= 8.178448D-01  Symmetry=a1

@    1   -7171.71758448 -7.5D-06  0.00026  0.00015  0.00234  0.00405      6.6
         Total DFT energy =    -7171.717584497920

                       DFT Final Molecular Orbital Analysis
                       ------------------------------------

 Vector   17  Occ=2.000000D+00  E=-4.936696D+00  Symmetry=e

 Vector   18  Occ=2.000000D+00  E=-4.937041D+00  Symmetry=e

 Vector   19  Occ=2.000000D+00  E=-2.032117D+00  Symmetry=a1

 Vector   20  Occ=2.000000D+00  E=-2.025921D+00  Symmetry=e

 Vector   21  Occ=2.000000D+00  E=-2.025848D+00  Symmetry=e

 Vector   22  Occ=2.000000D+00  E=-2.011914D+00  Symmetry=b1

 Vector   23  Occ=2.000000D+00  E=-2.011914D+00  Symmetry=b2

 Vector   24  Occ=2.000000D+00  E=-6.997230D-01  Symmetry=a1

 Vector   25  Occ=2.000000D+00  E=-4.155670D-01  Symmetry=a1

 Vector   26  Occ=2.000000D+00  E=-2.818835D-01  Symmetry=e

 Vector   27  Occ=2.000000D+00  E=-2.818724D-01  Symmetry=e

 Vector   28  Occ=0.000000D+00  E=-3.434393D-02  Symmetry=a1

 Vector   29  Occ=0.000000D+00  E= 1.507530D-01  Symmetry=a1

 Vector   30  Occ=0.000000D+00  E= 1.809737D-01  Symmetry=e

 Vector   31  Occ=0.000000D+00  E= 1.809737D-01  Symmetry=e

 Vector   32  Occ=0.000000D+00  E= 2.672316D-01  Symmetry=a1

 Vector   33  Occ=0.000000D+00  E= 2.916509D-01  Symmetry=e

 Vector   34  Occ=0.000000D+00  E= 2.916509D-01  Symmetry=e

 Vector   35  Occ=0.000000D+00  E= 3.195384D-01  Symmetry=b1

 Vector   36  Occ=0.000000D+00  E= 3.195384D-01  Symmetry=b2

 Vector   37  Occ=0.000000D+00  E= 4.754896D-01  Symmetry=a1

 Vector   38  Occ=0.000000D+00  E= 8.180759D-01  Symmetry=a1

     Multipole analysis of the density
     ---------------------------------

     L   x y z        total         alpha         beta         nuclear
     -   - - -        -----         -----         ----         -------
     0   0 0 0      0.000000    -27.000000    -27.000000     54.000000

     1   1 0 0      0.000000      0.000000      0.000000      0.000000
     1   0 1 0      0.000000      0.000000      0.000000      0.000000
     1   0 0 1     -0.261499     -0.007673     -0.007673     -0.246153

     2   2 0 0    -22.134340    -11.067170    -11.067170      0.000000
     2   1 1 0      0.000000      0.000000      0.000000      0.000000
     2   1 0 1      0.000000      0.000000      0.000000      0.000000
     2   0 2 0    -22.134340    -11.067170    -11.067170      0.000000
     2   0 1 1      0.000000      0.000000      0.000000      0.000000

         Total DFT energy =  -7171.717584497920
@    2   -7171.71758450 -1.7D-08  0.00001  0.00000  0.00039  0.00068      8.2
@    2   -7171.71758450 -1.7D-08  0.00001  0.00000  0.00039  0.00068      8.2

 Output coordinates in angstroms (scale by  1.889725989 to convert to a.u.)

  No.       Tag          Charge          X              Y              Z
 ---- ---------------- ---------- -------------- -------------- --------------
    1 H                    1.0000     0.00000000     0.00000000    -1.60255477
    2 I                   53.0000     0.00000000     0.00000000     0.02777917

         Total DFT energy =  -7171.717584497920
         Total DFT energy =    -7171.721071672196
         Total DFT energy =    -7171.721095843307
         Total DFT energy =    -7171.721068481306
         Total DFT energy =    -7171.721100783750
         Total DFT energy =    -7171.721073368120
         Total DFT energy =    -7171.721075301431
         Total DFT energy =    -7171.721095843262
         Total DFT energy =    -7171.721071672789
         Total DFT energy =    -7171.721100783874
         Total DFT energy =    -7171.721068439416
         Total DFT energy =    -7171.721075301374
         Total DFT energy =    -7171.721073368340
 Zero-Point correction to Energy  =    3.235 kcal/mol  (  0.005155 au)
 Thermal correction to Energy     =    4.716 kcal/mol  (  0.007515 au)
 Thermal correction to Enthalpy   =    5.308 kcal/mol  (  0.008458 au)
 Total Entropy                    =   49.346 cal/mol-K
   - Translational                =   40.434 cal/mol-K (mol. weight = 127.9082)
   - Rotational                   =    8.912 cal/mol-K (symmetry #  =        1)
   - Vibrational                  =    0.000 cal/mol-K
   - Translational                  =    2.979 cal/mol-K
   - Rotational                     =    1.986 cal/mol-K
   - Vibrational                    =    0.004 cal/mol-K
 P.Frequency        0.00        0.00        0.00        0.00        0.00     2263.90

 Normal Eigenvalue ||           Projected Infra Red Intensities
  Mode   [cm**-1]  || [atomic units] [(debye/angs)**2] [(KM/mol)] [arbitrary]
 ------ ---------- || -------------- ----------------- ---------- -----------
    1        0.000 ||    0.000000           0.000         0.000       0.000
    2        0.000 ||    0.007369           0.170         7.184      22.473
    3        0.000 ||    0.007369           0.170         7.184      22.473
    4        0.000 ||    0.000059           0.001         0.057       0.178
    5        0.000 ||    0.000059           0.001         0.057       0.178
    6     2263.903 ||    0.004819           0.111         4.698      14.697
 ----------------------------------------------------------------------------

 Total times  cpu:       45.3s     wall:       48.0s
