 Gaussian 03, Revision D.02,
 Gaussian 03:  AM64L-G03RevD.02  1-Mar-2006

 ----------------------------------------------------------------------
 #P B3LYP/6-31G(d,p) 5D 7F SCF=(Conver=10) TrackIO GFInput MaxDisk=16GB
 ----------------------------------------------------------------------

 HCO-L-Ala-NH2 B3LYP/6-31(d,p) single point calculation close to the po
 lyproline
 ----------------------------------------------------------------------
 Symbolic Z-matrix:
 Charge =  0 Multiplicity = 1

                         Standard orientation:
 ---------------------------------------------------------------------
 Center     Atomic     Atomic              Coordinates (Angstroms)
 Number     Number      Type              X           Y           Z
 ---------------------------------------------------------------------
    1          1             0        2.673167   -0.694356    1.176039
    2          6             0        1.989614   -0.338797    0.407458
    3          7             0        0.791716   -0.937921    0.456971
    4          8             0        2.319149    0.483587   -0.394917
    5          6             0       -0.339048   -0.600594   -0.399998
    6          1             0        0.610190   -1.515976    1.241885
    7          6             0       -0.994872    0.719648    0.034807
    8          6             0       -1.337584   -1.742762   -0.404729
    9          1             0        0.057189   -0.458737   -1.395361
   10          1             0       -1.740991   -1.909721    0.584556
   11          1             0       -2.166228   -1.510831   -1.056871
   12          1             0       -0.858424   -2.647544   -0.755331
   13          7             0       -0.313114    1.835227   -0.283739
   14          8             0       -2.046346    0.736816    0.602425
   15          1             0       -0.647826    2.690611    0.089141
   16          1             0        0.631638    1.777215   -0.581971
 ---------------------------------------------------------------------

 SCF Done:  E(RB+HF-LYP) =  -417.223184676     A.U. after   19 cycles

 The electronic state is 1-A.
 Alpha  occ. eigenvalues --  -19.12834 -19.10730 -14.37215 -14.33965 -10.29015
 Alpha  occ. eigenvalues --  -10.27763 -10.23386 -10.18135  -1.06333  -1.04542
 Alpha  occ. eigenvalues --   -0.94790  -0.90457  -0.78349  -0.67346  -0.62686
 Alpha  occ. eigenvalues --   -0.58398  -0.55001  -0.53864  -0.49502  -0.48562
 Alpha  occ. eigenvalues --   -0.42990  -0.42553  -0.41875  -0.39754  -0.39291
 Alpha  occ. eigenvalues --   -0.38508  -0.36915  -0.29063  -0.27203  -0.26596
 Alpha  occ. eigenvalues --   -0.24105
 Alpha virt. eigenvalues --    0.01402   0.03591   0.07816   0.10361   0.11359
 Alpha virt. eigenvalues --    0.14195   0.15437   0.16571   0.17441   0.19447
 Alpha virt. eigenvalues --    0.21768   0.24167   0.25612   0.29034   0.34149

 Mulliken atomic charges:
              1
     1  H    0.070278
     2  C    0.359373
     3  N   -0.440771
     4  O   -0.438581
     5  C   -0.022569
     6  H    0.264496
     7  C    0.497281
     8  C   -0.320507
     9  H    0.134124
    10  H    0.123700
    11  H    0.130913
    12  H    0.106416
    13  N   -0.573613
    14  O   -0.444576
    15  H    0.267381
    16  H    0.286656
 Sum of Mulliken charges=   0.00000

 Dipole moment (field-independent basis, Debye):
    X=     1.0380    Y=    -1.6191    Z=     0.7868  Tot=     2.0780
 Quadrupole moment (field-independent basis, Debye-Ang):
   XX=   -57.5939   YY=   -39.9198   ZZ=   -45.2844
   XY=    -0.5040   XZ=     6.2884   YZ=    -1.5711

 Normal termination of Gaussian 03 at Thu Feb 17 18:24:14 2011.
