 Gaussian 03, Revision D.02,
 Gaussian 03:  AM64L-G03RevD.02  1-Mar-2006

 --------------------------------------------------------------------
 #T RHF/6-31G(d,p) 5D 7F SCF=(Conver=10) TrackIO GFInput MaxDisk=16GB
 --------------------------------------------------------------------

 HCO-L-Ala-NH2 RHF/6-31(d,p) single point calculation close to the poly
 proline II
 ----------------------------------------------------------------------
 Symbolic Z-matrix:
 Charge =  0 Multiplicity = 1

                         Standard orientation:
 ---------------------------------------------------------------------
 Center     Atomic     Atomic              Coordinates (Angstroms)
 Number     Number      Type              X           Y           Z
 ---------------------------------------------------------------------
    1          1             0        2.673167   -0.694356    1.176039
    2          6             0        1.989614   -0.338797    0.407458
    3          7             0        0.791716   -0.937921    0.456971
    4          8             0        2.319149    0.483587   -0.394917
    5          6             0       -0.339048   -0.600594   -0.399998
    6          1             0        0.610190   -1.515976    1.241885
    7          6             0       -0.994872    0.719648    0.034807
    8          6             0       -1.337584   -1.742762   -0.404729
    9          1             0        0.057189   -0.458737   -1.395361
   10          1             0       -1.740991   -1.909721    0.584556
   11          1             0       -2.166228   -1.510831   -1.056871
   12          1             0       -0.858424   -2.647544   -0.755331
   13          7             0       -0.313114    1.835227   -0.283739
   14          8             0       -2.046346    0.736816    0.602425
   15          1             0       -0.647826    2.690611    0.089141
   16          1             0        0.631638    1.777215   -0.581971
 ---------------------------------------------------------------------

 SCF Done:  E(RHF) =  -414.803697976     A.U. after   18 cycles

 The electronic state is 1-A.
 Alpha  occ. eigenvalues --  -20.54782 -20.52282 -15.60787 -15.57060 -11.36514
 Alpha  occ. eigenvalues --  -11.34468 -11.28685 -11.22790  -1.41623  -1.39470
 Alpha  occ. eigenvalues --   -1.26286  -1.20904  -1.05487  -0.91155  -0.84823
 Alpha  occ. eigenvalues --   -0.78793  -0.74846  -0.73241  -0.68185  -0.67054
 Alpha  occ. eigenvalues --   -0.61961  -0.61349  -0.58819  -0.55659  -0.55235
 Alpha  occ. eigenvalues --   -0.54016  -0.52246  -0.45346  -0.44165  -0.40808
 Alpha  occ. eigenvalues --   -0.39175
 Alpha virt. eigenvalues --    0.17985   0.20676   0.22007   0.24547   0.26037
 Alpha virt. eigenvalues --    0.28753   0.30730   0.31628   0.32725   0.35508
 Alpha virt. eigenvalues --    0.39021   0.42704   0.44023   0.45575   0.50921

 Mulliken atomic charges:
              1
     1  H    0.118956
     2  C    0.588739
     3  N   -0.687769
     4  O   -0.604293
     5  C   -0.023818
     6  H    0.315726
     7  C    0.748405
     8  C   -0.329065
     9  H    0.173343
    10  H    0.138803
    11  H    0.147065
    12  H    0.123544
    13  N   -0.763110
    14  O   -0.608470
    15  H    0.312877
    16  H    0.349068
 Sum of Mulliken charges=   0.00000

 Dipole moment (field-independent basis, Debye):
    X=     1.5005    Y=    -2.0743    Z=     0.9817  Tot=     2.7419
 1\1\GINC-NODE188\SP\RHF\6-31G(d,p)\C4H8N2O2\PABLO\17-Feb-2011\0\\#T RH
 F/6-31G(d,p) 5D 7F SCF=(Conver=10) TrackIO GFInput MaxDisk=16GB\\HCO-L
 -Ala-NH2 RHF/6-31(d,p) single point calculation close to the polyproli
 ne II\\0,1\H\C,1,1.0882942483\N,2,1.3402838218,1,112.90692003\O,2,1.19
 52884172,3,125.36332624,1,178.63036317,0\C,3,1.4583595563,2,124.603269
 76,1,176.20284735,0\H,3,0.9915590043,2,116.96612109,5,-167.26951027,0\
 C,5,1.5369448414,3,111.30337797,2,-75.,0\C,5,1.5171170904,3,109.756529
 22,7,-123.93909608,0\H,5,1.0806825021,3,106.69658097,7,117.2528576,0\H
 ,8,1.0813405229,5,111.03447653,3,62.51695207,0\H,8,1.0796907222,5,110.
 20028241,10,118.90319899,0\H,8,1.0821952391,5,109.81734435,10,-121.146

 Normal termination of Gaussian 03 at Thu Feb 17 18:23:11 2011.
